 240 240   0   0
  0.4775178E+02  0.1145513E-08  0.1718270E-08  0.5822500E-08  0.5000000E-15
  1.000000000000000E-004
  CAR 
 unknown system                          
      4.23532202    -13.17231199  301     -0.22645339      1.00000000
    -13.172  0.0000E+00  0.0000E+00
    -13.114  0.0000E+00  0.0000E+00
    -13.056  0.0000E+00  0.0000E+00
    -12.998  0.0000E+00  0.0000E+00
    -12.940  0.0000E+00  0.0000E+00
    -12.882  0.0000E+00  0.0000E+00
    -12.824 -0.1903E-27 -0.1104E-28
    -12.766 -0.2016E-25 -0.1181E-26
    -12.708 -0.1817E-23 -0.1066E-24
    -12.650 -0.1381E-21 -0.8121E-23
    -12.592 -0.8856E-20 -0.5220E-21
    -12.534 -0.4788E-18 -0.2831E-19
    -12.476 -0.2183E-16 -0.1295E-17
    -12.418 -0.8385E-15 -0.4995E-16
    -12.360 -0.2714E-13 -0.1625E-14
    -12.302 -0.7169E-12 -0.4323E-13
    -12.244 -0.1640E-10 -0.9946E-12
    -12.186 -0.3153E-09 -0.1929E-10
    -12.128 -0.5094E-08 -0.3149E-09
    -12.070 -0.6909E-07 -0.4324E-08
    -12.012 -0.7854E-06 -0.4989E-07
    -11.954 -0.7472E-05 -0.4834E-06
    -11.896 -0.5936E-04 -0.3928E-05
    -11.838 -0.3927E-03 -0.2671E-04
    -11.780 -0.2154E-02 -0.1517E-03
    -11.722 -0.9745E-02 -0.7172E-03
    -11.664 -0.3601E-01 -0.2807E-02
    -11.606 -0.1070E+00 -0.9018E-02
    -11.548 -0.2486E+00 -0.2345E-01
    -11.490 -0.4216E+00 -0.4791E-01
    -11.432 -0.4080E+00 -0.7158E-01
    -11.374  0.2249E+00 -0.5853E-01
    -11.315  0.1872E+01  0.5009E-01
    -11.257  0.4387E+01  0.3047E+00
    -11.199  0.6876E+01  0.7036E+00
    -11.141  0.8303E+01  0.1185E+01
    -11.083  0.8448E+01  0.1676E+01
    -11.025  0.8034E+01  0.2142E+01
    -10.967  0.7832E+01  0.2596E+01
    -10.909  0.8056E+01  0.3064E+01
    -10.851  0.8816E+01  0.3575E+01
    -10.793  0.1053E+02  0.4186E+01
    -10.735  0.1332E+02  0.4959E+01
    -10.677  0.1646E+02  0.5914E+01
    -10.619  0.1916E+02  0.7026E+01
    -10.561  0.2149E+02  0.8273E+01
    -10.503  0.2362E+02  0.9643E+01
    -10.445  0.2434E+02  0.1106E+02
    -10.387  0.2167E+02  0.1231E+02
    -10.329  0.1544E+02  0.1321E+02
    -10.271  0.8736E+01  0.1372E+02
    -10.213  0.6161E+01  0.1407E+02
    -10.155  0.1044E+02  0.1468E+02
    -10.097  0.2029E+02  0.1586E+02
    -10.039  0.3113E+02  0.1766E+02
     -9.981  0.3806E+02  0.1987E+02
     -9.923  0.3880E+02  0.2212E+02
     -9.865  0.3435E+02  0.2411E+02
     -9.807  0.2769E+02  0.2572E+02
     -9.749  0.2223E+02  0.2701E+02
     -9.691  0.2084E+02  0.2822E+02
     -9.633  0.2481E+02  0.2966E+02
     -9.575  0.3315E+02  0.3158E+02
     -9.517  0.4341E+02  0.3410E+02
     -9.459  0.5336E+02  0.3720E+02
     -9.401  0.6151E+02  0.4077E+02
     -9.343  0.6615E+02  0.4461E+02
     -9.285  0.6514E+02  0.4839E+02
     -9.227  0.5756E+02  0.5173E+02
     -9.169  0.4551E+02  0.5437E+02
     -9.111  0.3415E+02  0.5635E+02
     -9.053  0.2931E+02  0.5805E+02
     -8.994  0.3381E+02  0.6001E+02
     -8.936  0.4480E+02  0.6261E+02
     -8.878  0.5518E+02  0.6581E+02
     -8.820  0.5856E+02  0.6921E+02
     -8.762  0.5355E+02  0.7232E+02
     -8.704  0.4355E+02  0.7485E+02
     -8.646  0.3322E+02  0.7677E+02
     -8.588  0.2560E+02  0.7826E+02
     -8.530  0.2177E+02  0.7952E+02
     -8.472  0.2205E+02  0.8080E+02
     -8.414  0.2646E+02  0.8234E+02
     -8.356  0.3397E+02  0.8431E+02
     -8.298  0.4191E+02  0.8674E+02
     -8.240  0.4752E+02  0.8950E+02
     -8.182  0.5031E+02  0.9242E+02
     -8.124  0.5203E+02  0.9544E+02
     -8.066  0.5439E+02  0.9859E+02
     -8.008  0.5761E+02  0.1019E+03
     -7.950  0.6096E+02  0.1055E+03
     -7.892  0.6315E+02  0.1091E+03
     -7.834  0.6233E+02  0.1128E+03
     -7.776  0.5731E+02  0.1161E+03
     -7.718  0.4952E+02  0.1190E+03
     -7.660  0.4255E+02  0.1214E+03
     -7.602  0.3927E+02  0.1237E+03
     -7.544  0.3978E+02  0.1260E+03
     -7.486  0.4239E+02  0.1285E+03
     -7.428  0.4546E+02  0.1311E+03
     -7.370  0.4817E+02  0.1339E+03
     -7.312  0.4976E+02  0.1368E+03
     -7.254  0.4869E+02  0.1396E+03
     -7.196  0.4287E+02  0.1421E+03
     -7.138  0.3183E+02  0.1439E+03
     -7.080  0.1917E+02  0.1451E+03
     -7.022  0.1210E+02  0.1458E+03
     -6.964  0.1728E+02  0.1468E+03
     -6.906  0.3598E+02  0.1489E+03
     -6.848  0.6214E+02  0.1525E+03
     -6.790  0.8493E+02  0.1574E+03
     -6.731  0.9467E+02  0.1629E+03
     -6.673  0.8857E+02  0.1680E+03
     -6.615  0.7205E+02  0.1722E+03
     -6.557  0.5453E+02  0.1754E+03
     -6.499  0.4329E+02  0.1779E+03
     -6.441  0.4088E+02  0.1802E+03
     -6.383  0.4663E+02  0.1830E+03
     -6.325  0.5901E+02  0.1864E+03
     -6.267  0.7569E+02  0.1908E+03
     -6.209  0.9277E+02  0.1962E+03
     -6.151  0.1051E+03  0.2022E+03
     -6.093  0.1075E+03  0.2085E+03
     -6.035  0.9753E+02  0.2141E+03
     -5.977  0.7689E+02  0.2186E+03
     -5.919  0.5335E+02  0.2217E+03
     -5.861  0.3807E+02  0.2239E+03
     -5.803  0.3943E+02  0.2262E+03
     -5.745  0.5717E+02  0.2295E+03
     -5.687  0.8227E+02  0.2343E+03
     -5.629  0.1032E+03  0.2403E+03
     -5.571  0.1130E+03  0.2468E+03
     -5.513  0.1118E+03  0.2533E+03
     -5.455  0.1035E+03  0.2593E+03
     -5.397  0.9200E+02  0.2647E+03
     -5.339  0.7921E+02  0.2693E+03
     -5.281  0.6639E+02  0.2731E+03
     -5.223  0.5637E+02  0.2764E+03
     -5.165  0.5343E+02  0.2795E+03
     -5.107  0.6006E+02  0.2830E+03
     -5.049  0.7350E+02  0.2872E+03
     -4.991  0.8672E+02  0.2923E+03
     -4.933  0.9368E+02  0.2977E+03
     -4.875  0.9291E+02  0.3031E+03
     -4.817  0.8651E+02  0.3081E+03
     -4.759  0.7776E+02  0.3126E+03
     -4.701  0.7052E+02  0.3167E+03
     -4.643  0.6840E+02  0.3207E+03
     -4.585  0.7256E+02  0.3249E+03
     -4.527  0.8089E+02  0.3296E+03
     -4.468  0.9056E+02  0.3348E+03
     -4.410  0.1003E+03  0.3407E+03
     -4.352  0.1091E+03  0.3470E+03
     -4.294  0.1141E+03  0.3536E+03
     -4.236  0.1108E+03  0.3600E+03
     -4.178  0.9698E+02  0.3657E+03
     -4.120  0.7569E+02  0.3701E+03
     -4.062  0.5438E+02  0.3732E+03
     -4.004  0.4059E+02  0.3756E+03
     -3.946  0.3723E+02  0.3777E+03
     -3.888  0.4190E+02  0.3802E+03
     -3.830  0.5000E+02  0.3831E+03
     -3.772  0.5783E+02  0.3864E+03
     -3.714  0.6332E+02  0.3901E+03
     -3.656  0.6573E+02  0.3939E+03
     -3.598  0.6581E+02  0.3977E+03
     -3.540  0.6544E+02  0.4015E+03
     -3.482  0.6624E+02  0.4054E+03
     -3.424  0.6826E+02  0.4093E+03
     -3.366  0.7025E+02  0.4134E+03
     -3.308  0.7114E+02  0.4175E+03
     -3.250  0.7119E+02  0.4217E+03
     -3.192  0.7211E+02  0.4258E+03
     -3.134  0.7666E+02  0.4303E+03
     -3.076  0.8757E+02  0.4354E+03
     -3.018  0.1050E+03  0.4415E+03
     -2.960  0.1238E+03  0.4487E+03
     -2.902  0.1345E+03  0.4565E+03
     -2.844  0.1296E+03  0.4640E+03
     -2.786  0.1090E+03  0.4703E+03
     -2.728  0.8076E+02  0.4750E+03
     -2.670  0.5620E+02  0.4782E+03
     -2.612  0.4388E+02  0.4808E+03
     -2.554  0.4602E+02  0.4835E+03
     -2.496  0.5819E+02  0.4868E+03
     -2.438  0.7242E+02  0.4910E+03
     -2.380  0.8215E+02  0.4958E+03
     -2.322  0.8578E+02  0.5008E+03
     -2.264  0.8604E+02  0.5058E+03
     -2.206  0.8593E+02  0.5108E+03
     -2.147  0.8605E+02  0.5158E+03
     -2.089  0.8637E+02  0.5208E+03
     -2.031  0.8990E+02  0.5260E+03
     -1.973  0.1020E+03  0.5319E+03
     -1.915  0.1239E+03  0.5391E+03
     -1.857  0.1477E+03  0.5477E+03
     -1.799  0.1594E+03  0.5569E+03
     -1.741  0.1496E+03  0.5656E+03
     -1.683  0.1219E+03  0.5727E+03
     -1.625  0.9062E+02  0.5779E+03
     -1.567  0.7043E+02  0.5820E+03
     -1.509  0.6644E+02  0.5859E+03
     -1.451  0.7345E+02  0.5901E+03
     -1.393  0.8275E+02  0.5949E+03
     -1.335  0.8993E+02  0.6001E+03
     -1.277  0.9705E+02  0.6058E+03
     -1.219  0.1081E+03  0.6121E+03
     -1.161  0.1223E+03  0.6191E+03
     -1.103  0.1324E+03  0.6268E+03
     -1.045  0.1305E+03  0.6344E+03
     -0.987  0.1161E+03  0.6411E+03
     -0.929  0.9826E+02  0.6468E+03
     -0.871  0.8827E+02  0.6520E+03
     -0.813  0.9025E+02  0.6572E+03
     -0.755  0.9946E+02  0.6630E+03
     -0.697  0.1090E+03  0.6693E+03
     -0.639  0.1162E+03  0.6760E+03
     -0.581  0.1216E+03  0.6831E+03
     -0.523  0.1244E+03  0.6903E+03
     -0.465  0.1222E+03  0.6974E+03
     -0.407  0.1139E+03  0.7040E+03
     -0.349  0.1015E+03  0.7099E+03
     -0.291  0.8829E+02  0.7150E+03
     -0.233  0.7796E+02  0.7195E+03
     -0.175  0.7314E+02  0.7238E+03
     -0.117  0.7338E+02  0.7280E+03
     -0.059  0.7490E+02  0.7324E+03
     -0.001  0.7412E+02  0.7367E+03
      0.057  0.7194E+02  0.7409E+03
      0.116  0.7307E+02  0.7451E+03
      0.174  0.8059E+02  0.7498E+03
      0.232  0.9209E+02  0.7551E+03
      0.290  0.1020E+03  0.7610E+03
      0.348  0.1066E+03  0.7672E+03
      0.406  0.1052E+03  0.7733E+03
      0.464  0.9874E+02  0.7791E+03
      0.522  0.8891E+02  0.7842E+03
      0.580  0.7888E+02  0.7888E+03
      0.638  0.7374E+02  0.7931E+03
      0.696  0.7809E+02  0.7976E+03
      0.754  0.9294E+02  0.8030E+03
      0.812  0.1146E+03  0.8096E+03
      0.870  0.1367E+03  0.8176E+03
      0.928  0.1532E+03  0.8265E+03
      0.986  0.1597E+03  0.8357E+03
      1.044  0.1552E+03  0.8447E+03
      1.102  0.1426E+03  0.8530E+03
      1.160  0.1298E+03  0.8606E+03
      1.218  0.1260E+03  0.8679E+03
      1.276  0.1346E+03  0.8757E+03
      1.334  0.1494E+03  0.8843E+03
      1.392  0.1577E+03  0.8935E+03
      1.450  0.1507E+03  0.9022E+03
      1.508  0.1310E+03  0.9098E+03
      1.566  0.1109E+03  0.9163E+03
      1.624  0.1020E+03  0.9222E+03
      1.682  0.1057E+03  0.9283E+03
      1.740  0.1138E+03  0.9349E+03
      1.798  0.1173E+03  0.9417E+03
      1.856  0.1139E+03  0.9483E+03
      1.914  0.1079E+03  0.9546E+03
      1.972  0.1041E+03  0.9606E+03
      2.030  0.1044E+03  0.9667E+03
      2.088  0.1065E+03  0.9729E+03
      2.146  0.1053E+03  0.9790E+03
      2.204  0.9482E+02  0.9845E+03
      2.262  0.7325E+02  0.9887E+03
      2.320  0.4533E+02  0.9914E+03
      2.379  0.1984E+02  0.9925E+03
      2.437  0.3322E+01  0.9927E+03
      2.495 -0.3520E+01  0.9925E+03
      2.553 -0.4205E+01  0.9923E+03
      2.611 -0.2707E+01  0.9921E+03
      2.669 -0.1269E+01  0.9920E+03
      2.727 -0.4663E+00  0.9920E+03
      2.785 -0.1386E+00  0.9920E+03
      2.843 -0.3382E-01  0.9920E+03
      2.901 -0.6838E-02  0.9920E+03
      2.959 -0.1152E-02  0.9920E+03
      3.017 -0.1622E-03  0.9920E+03
      3.075 -0.1915E-04  0.9920E+03
      3.133 -0.1898E-05  0.9920E+03
      3.191 -0.1582E-06  0.9920E+03
      3.249 -0.1111E-07  0.9920E+03
      3.307 -0.6566E-09  0.9920E+03
      3.365 -0.3272E-10  0.9920E+03
      3.423 -0.1385E-11  0.9920E+03
      3.481 -0.4592E-13  0.9920E+03
      3.539  0.0000E+00  0.9920E+03
      3.597  0.0000E+00  0.9920E+03
      3.655  0.0000E+00  0.9920E+03
      3.713  0.0000E+00  0.9920E+03
      3.771  0.0000E+00  0.9920E+03
      3.829  0.0000E+00  0.9920E+03
      3.887  0.0000E+00  0.9920E+03
      3.945  0.0000E+00  0.9920E+03
      4.003  0.0000E+00  0.9920E+03
      4.061  0.0000E+00  0.9920E+03
      4.119  0.0000E+00  0.9920E+03
      4.177  0.0000E+00  0.9920E+03
      4.235  0.0000E+00  0.9920E+03
