  240  240    1    1
  0.4775178E+02  0.1145513E-08  0.1718269E-08  0.5822500E-08  0.5000000E-15
  1.000000000000000E-004
  CAR 
 unknown system                          
    720      1    496
 
  0.0000000E+00  0.0000000E+00  0.0000000E+00  0.1000000E+01
    1      -11.172312   1.000000
    2      -10.926964   1.000000
    3      -10.689992   1.000000
    4      -10.666010   1.000000
    5      -10.490746   1.000000
    6      -10.432006   1.000000
    7      -10.409918   1.000000
    8      -10.082087   1.000000
    9      -10.034366   1.000000
   10      -10.011667   1.000000
   11       -9.983265   1.000000
   12       -9.911312   1.000000
   13       -9.826910   1.000000
   14       -9.794181   1.000000
   15       -9.618798   1.000000
   16       -9.572728   1.000000
   17       -9.544626   1.000000
   18       -9.513054   1.000000
   19       -9.450830   1.000000
   20       -9.427616   1.000000
   21       -9.374749   1.000000
   22       -9.357489   1.000000
   23       -9.319319   1.000000
   24       -9.309375   1.000000
   25       -9.304391   1.000000
   26       -9.266771   1.000000
   27       -9.208843   1.000000
   28       -9.159991   1.000000
   29       -9.133876   1.000000
   30       -8.949313   1.000000
   31       -8.938361   1.000000
   32       -8.904368   1.000000
   33       -8.888048   1.000000
   34       -8.872911   1.000000
   35       -8.863933   1.000000
   36       -8.797126   1.000000
   37       -8.762185   1.000000
   38       -8.702157   1.000000
   39       -8.659480   1.000000
   40       -8.526449   1.000000
   41       -8.498108   1.000000
   42       -8.348593   1.000000
   43       -8.302624   1.000000
   44       -8.284022   1.000000
   45       -8.272144   1.000000
   46       -8.266124   1.000000
   47       -8.168859   1.000000
   48       -8.096823   1.000000
   49       -8.077828   1.000000
   50       -8.065952   1.000000
   51       -8.045261   1.000000
   52       -8.007584   1.000000
   53       -7.937716   1.000000
   54       -7.925460   1.000000
   55       -7.856062   1.000000
   56       -7.853880   1.000000
   57       -7.836222   1.000000
   58       -7.820417   1.000000
   59       -7.778907   1.000000
   60       -7.761993   1.000000
   61       -7.632215   1.000000
   62       -7.599088   1.000000
   63       -7.587131   1.000000
   64       -7.533450   1.000000
   65       -7.440540   1.000000
   66       -7.421679   1.000000
   67       -7.390874   1.000000
   68       -7.376233   1.000000
   69       -7.287743   1.000000
   70       -7.231022   1.000000
   71       -7.224341   1.000000
   72       -7.194476   1.000000
   73       -7.173087   1.000000
   74       -6.886623   1.000000
   75       -6.865725   1.000000
   76       -6.851336   1.000000
   77       -6.816086   1.000000
   78       -6.808072   1.000000
   79       -6.784039   1.000000
   80       -6.764909   1.000000
   81       -6.754126   1.000000
   82       -6.738360   1.000000
   83       -6.724432   1.000000
   84       -6.710647   1.000000
   85       -6.679157   1.000000
   86       -6.665982   1.000000
   87       -6.661224   1.000000
   88       -6.541282   1.000000
   89       -6.497392   1.000000
   90       -6.484743   1.000000
   91       -6.446152   1.000000
   92       -6.355670   1.000000
   93       -6.341633   1.000000
   94       -6.298124   1.000000
   95       -6.268865   1.000000
   96       -6.260298   1.000000
   97       -6.233164   1.000000
   98       -6.218803   1.000000
   99       -6.189882   1.000000
  100       -6.174667   1.000000
  101       -6.152443   1.000000
  102       -6.140750   1.000000
  103       -6.133452   1.000000
  104       -6.108769   1.000000
  105       -6.083696   1.000000
  106       -6.076115   1.000000
  107       -6.059571   1.000000
  108       -6.028071   1.000000
  109       -6.006927   1.000000
  110       -6.000420   1.000000
  111       -5.983449   1.000000
  112       -5.956110   1.000000
  113       -5.754121   1.000000
  114       -5.737421   1.000000
  115       -5.729140   1.000000
  116       -5.711176   1.000000
  117       -5.694199   1.000000
  118       -5.677721   1.000000
  119       -5.656981   1.000000
  120       -5.636944   1.000000
  121       -5.627521   1.000000
  122       -5.608299   1.000000
  123       -5.585330   1.000000
  124       -5.577740   1.000000
  125       -5.563257   1.000000
  126       -5.551506   1.000000
  127       -5.521497   1.000000
  128       -5.511951   1.000000
  129       -5.476953   1.000000
  130       -5.453147   1.000000
  131       -5.421693   1.000000
  132       -5.414280   1.000000
  133       -5.402494   1.000000
  134       -5.394135   1.000000
  135       -5.341358   1.000000
  136       -5.327304   1.000000
  137       -5.278424   1.000000
  138       -5.247765   1.000000
  139       -5.231409   1.000000
  140       -5.220434   1.000000
  141       -5.073861   1.000000
  142       -5.057702   1.000000
  143       -5.052645   1.000000
  144       -5.034316   1.000000
  145       -5.017884   1.000000
  146       -5.010442   1.000000
  147       -5.000771   1.000000
  148       -4.985734   1.000000
  149       -4.963313   1.000000
  150       -4.946901   1.000000
  151       -4.876625   1.000000
  152       -4.865987   1.000000
  153       -4.837900   1.000000
  154       -4.820545   1.000000
  155       -4.812063   1.000000
  156       -4.793693   1.000000
  157       -4.781292   1.000000
  158       -4.751763   1.000000
  159       -4.736260   1.000000
  160       -4.622559   1.000000
  161       -4.612900   1.000000
  162       -4.596610   1.000000
  163       -4.565746   1.000000
  164       -4.560494   1.000000
  165       -4.539184   1.000000
  166       -4.525597   1.000000
  167       -4.506914   1.000000
  168       -4.459957   1.000000
  169       -4.447382   1.000000
  170       -4.418362   1.000000
  171       -4.400086   1.000000
  172       -4.371537   1.000000
  173       -4.351459   1.000000
  174       -4.344239   1.000000
  175       -4.324923   1.000000
  176       -4.316353   1.000000
  177       -4.294169   1.000000
  178       -4.283509   1.000000
  179       -4.268702   1.000000
  180       -4.256922   1.000000
  181       -4.241067   1.000000
  182       -4.200771   1.000000
  183       -4.183632   1.000000
  184       -4.180226   1.000000
  185       -4.148621   1.000000
  186       -4.140303   1.000000
  187       -4.129123   1.000000
  188       -3.948403   1.000000
  189       -3.934411   1.000000
  190       -3.925204   1.000000
  191       -3.905561   1.000000
  192       -3.803007   1.000000
  193       -3.765988   1.000000
  194       -3.756091   1.000000
  195       -3.748427   1.000000
  196       -3.706379   1.000000
  197       -3.690367   1.000000
  198       -3.620146   1.000000
  199       -3.613319   1.000000
  200       -3.587543   1.000000
  201       -3.576716   1.000000
  202       -3.488177   1.000000
  203       -3.479912   1.000000
  204       -3.466905   1.000000
  205       -3.425310   1.000000
  206       -3.385475   1.000000
  207       -3.376157   1.000000
  208       -3.356894   1.000000
  209       -3.329472   1.000000
  210       -3.282493   1.000000
  211       -3.266200   1.000000
  212       -3.244870   1.000000
  213       -3.178892   1.000000
  214       -3.171693   1.000000
  215       -3.159853   1.000000
  216       -3.140913   1.000000
  217       -3.114704   1.000000
  218       -3.102639   1.000000
  219       -3.017254   1.000000
  220       -3.002829   1.000000
  221       -2.992063   1.000000
  222       -2.987133   1.000000
  223       -2.974264   1.000000
  224       -2.964185   1.000000
  225       -2.954571   1.000000
  226       -2.937351   1.000000
  227       -2.920829   1.000000
  228       -2.913640   1.000000
  229       -2.891759   1.000000
  230       -2.877721   1.000000
  231       -2.873359   1.000000
  232       -2.869261   1.000000
  233       -2.854886   1.000000
  234       -2.845031   1.000000
  235       -2.827353   1.000000
  236       -2.818598   1.000000
  237       -2.757154   1.000000
  238       -2.739583   1.000000
  239       -2.710363   1.000000
  240       -2.687377   1.000000
  241       -2.564341   1.000000
  242       -2.512065   1.000000
  243       -2.502958   1.000000
  244       -2.493731   1.000000
  245       -2.469623   1.000000
  246       -2.426604   1.000000
  247       -2.409991   1.000000
  248       -2.386771   1.000000
  249       -2.365793   1.000000
  250       -2.347895   1.000000
  251       -2.341279   1.000000
  252       -2.333078   1.000000
  253       -2.285567   1.000000
  254       -2.221257   1.000000
  255       -2.205957   1.000000
  256       -2.181490   1.000000
  257       -2.174583   1.000000
  258       -2.162090   1.000000
  259       -2.152328   1.000000
  260       -2.125519   1.000000
  261       -2.106838   1.000000
  262       -2.072561   1.000000
  263       -2.054451   1.000000
  264       -2.040576   1.000000
  265       -2.015134   1.000000
  266       -1.950098   1.000000
  267       -1.940530   1.000000
  268       -1.919407   1.000000
  269       -1.897895   1.000000
  270       -1.891070   1.000000
  271       -1.878335   1.000000
  272       -1.866658   1.000000
  273       -1.861915   1.000000
  274       -1.848664   1.000000
  275       -1.839935   1.000000
  276       -1.831857   1.000000
  277       -1.822366   1.000000
  278       -1.804788   1.000000
  279       -1.804071   1.000000
  280       -1.789878   1.000000
  281       -1.786557   1.000000
  282       -1.777491   1.000000
  283       -1.767005   1.000000
  284       -1.758049   1.000000
  285       -1.738484   1.000000
  286       -1.726609   1.000000
  287       -1.712669   1.000000
  288       -1.699311   1.000000
  289       -1.688012   1.000000
  290       -1.590011   1.000000
  291       -1.544913   1.000000
  292       -1.528851   1.000000
  293       -1.507536   1.000000
  294       -1.476322   1.000000
  295       -1.471264   1.000000
  296       -1.419887   1.000000
  297       -1.403825   1.000000
  298       -1.383869   1.000000
  299       -1.376030   1.000000
  300       -1.360125   1.000000
  301       -1.356956   1.000000
  302       -1.330582   1.000000
  303       -1.294932   1.000000
  304       -1.261396   1.000000
  305       -1.235697   1.000000
  306       -1.201330   1.000000
  307       -1.182508   1.000000
  308       -1.168426   1.000000
  309       -1.158951   1.000000
  310       -1.148882   1.000000
  311       -1.128737   1.000000
  312       -1.125897   1.000000
  313       -1.119900   1.000000
  314       -1.109318   1.000000
  315       -1.090274   1.000000
  316       -1.079038   1.000000
  317       -1.068861   1.000000
  318       -1.053933   1.000000
  319       -1.030397   1.000000
  320       -1.021149   1.000000
  321       -1.013112   1.000000
  322       -1.003380   1.000000
  323       -0.983529   1.000001
  324       -0.950612   1.000002
  325       -0.927429   1.000004
  326       -0.822796   1.000103
  327       -0.819584   1.000113
  328       -0.801613   1.000184
  329       -0.785475   1.000280
  330       -0.777103   1.000347
  331       -0.769262   1.000422
  332       -0.767450   1.000442
  333       -0.755221   1.000595
  334       -0.736332   1.000926
  335       -0.717657   1.001406
  336       -0.708341   1.001719
  337       -0.701384   1.001990
  338       -0.623790   1.008344
  339       -0.586264   1.014468
  340       -0.580755   1.015550
  341       -0.577330   1.016245
  342       -0.573637   1.017011
  343       -0.567794   1.018256
  344       -0.539794   1.024607
  345       -0.535355   1.025631
  346       -0.527573   1.027401
  347       -0.516075   1.029890
  348       -0.507570   1.031566
  349       -0.482176   1.035043
  350       -0.477520   1.035320
  351       -0.431572   1.027583
  352       -0.411243   1.015329
  353       -0.389995   0.994441
  354       -0.359833   0.947782
  355       -0.351199   0.930378
  356       -0.340230   0.905561
  357       -0.337466   0.898830
  358       -0.309310   0.819459
  359       -0.278267   0.711297
  360       -0.265985   0.663705
  361       -0.204246   0.406671
  362       -0.166376   0.258061
  363       -0.140891   0.172084
  364       -0.102538   0.071395
  365       -0.084718   0.037134
  366       -0.078261   0.026635
  367       -0.059203   0.001251
  368       -0.033065  -0.021348
  369       -0.010257  -0.031618
  370        0.010597  -0.035204
  371        0.031038  -0.034902
  372        0.058507  -0.030831
  373        0.161865  -0.009611
  374        0.168305  -0.008693
  375        0.192368  -0.005830
  376        0.214477  -0.003907
  377        0.217659  -0.003679
  378        0.230280  -0.002881
  379        0.244200  -0.002175
  380        0.247622  -0.002026
  381        0.264562  -0.001412
  382        0.300741  -0.000617
  383        0.332428  -0.000281
  384        0.352510  -0.000166
  385        0.355023  -0.000155
  386        0.398539  -0.000046
  387        0.416757  -0.000027
  388        0.419277  -0.000025
  389        0.445180  -0.000011
  390        0.451771  -0.000009
  391        0.468670  -0.000005
  392        0.495298  -0.000002
  393        0.503937  -0.000002
  394        0.538363  -0.000000
  395        0.584832  -0.000000
  396        0.614439  -0.000000
  397        0.628760  -0.000000
  398        0.639621  -0.000000
  399        0.698404  -0.000000
  400        0.728033  -0.000000
  401        0.751773  -0.000000
  402        0.776908  -0.000000
  403        0.795437  -0.000000
  404        0.814739  -0.000000
  405        0.816222  -0.000000
  406        0.827593  -0.000000
  407        0.838559  -0.000000
  408        0.846299  -0.000000
  409        0.855857  -0.000000
  410        0.861487  -0.000000
  411        0.891091  -0.000000
  412        0.903893  -0.000000
  413        0.919905  -0.000000
  414        0.946394  -0.000000
  415        0.957824  -0.000000
  416        0.967214  -0.000000
  417        0.971657  -0.000000
  418        0.988101  -0.000000
  419        0.995594  -0.000000
  420        0.999906  -0.000000
  421        1.020806  -0.000000
  422        1.028295  -0.000000
  423        1.030471  -0.000000
  424        1.043273  -0.000000
  425        1.057179  -0.000000
  426        1.070682  -0.000000
  427        1.073202  -0.000000
  428        1.093760  -0.000000
  429        1.133936  -0.000000
  430        1.143851  -0.000000
  431        1.156624  -0.000000
  432        1.166280  -0.000000
  433        1.172385  -0.000000
  434        1.236122  -0.000000
  435        1.253519  -0.000000
  436        1.264348  -0.000000
  437        1.269088  -0.000000
  438        1.287749  -0.000000
  439        1.304069  -0.000000
  440        1.322616  -0.000000
  441        1.325709  -0.000000
  442        1.340608  -0.000000
  443        1.347964  -0.000000
  444        1.358455  -0.000000
  445        1.365521  -0.000000
  446        1.383600  -0.000000
  447        1.391318  -0.000000
  448        1.393917  -0.000000
  449        1.416646  -0.000000
  450        1.419769  -0.000000
  451        1.429843  -0.000000
  452        1.437131  -0.000000
  453        1.443411  -0.000000
  454        1.458135  -0.000000
  455        1.471008  -0.000000
  456        1.478204  -0.000000
  457        1.502012  -0.000000
  458        1.539680  -0.000000
  459        1.576156  -0.000000
  460        1.629672  -0.000000
  461        1.641753  -0.000000
  462        1.666550  -0.000000
  463        1.682440  -0.000000
  464        1.689446  -0.000000
  465        1.698391  -0.000000
  466        1.709850  -0.000000
  467        1.722931  -0.000000
  468        1.733807  -0.000000
  469        1.749211  -0.000000
  470        1.771950  -0.000000
  471        1.781030  -0.000000
  472        1.784371  -0.000000
  473        1.809327  -0.000000
  474        1.837507  -0.000000
  475        1.852742  -0.000000
  476        1.879374  -0.000000
  477        1.902320  -0.000000
  478        1.944882  -0.000000
  479        1.946702  -0.000000
  480        1.958938  -0.000000
  481        1.970376  -0.000000
  482        1.990397  -0.000000
  483        2.001287  -0.000000
  484        2.041739  -0.000000
  485        2.055393  -0.000000
  486        2.071036  -0.000000
  487        2.108088  -0.000000
  488        2.144153  -0.000000
  489        2.146621  -0.000000
  490        2.161092  -0.000000
  491        2.176601  -0.000000
  492        2.182668  -0.000000
  493        2.201291  -0.000000
  494        2.210694  -0.000000
  495        2.219274  -0.000000
  496        2.235322  -0.000000
