       N       E                     dE             d eps       ncg     rms          rms(c)
DAV:   1    -0.102266432320E+04   -0.10227E+04   -0.38404E+02  1120   0.211E+01    0.220E+01
DAV:   2    -0.125033296380E+04   -0.22767E+03   -0.31483E+02  1440   0.416E+01    0.396E+01
DAV:   3    -0.107344482852E+04    0.17689E+03   -0.77999E+02  1392   0.482E+01    0.277E+01
DAV:   4    -0.970282817644E+03    0.10316E+03   -0.26365E+02  1360   0.248E+01    0.121E+01
DAV:   5    -0.968862680390E+03    0.14201E+01   -0.97683E+01  1248   0.107E+01    0.785E+00
DAV:   6    -0.970108085047E+03   -0.12454E+01   -0.14889E+01  1248   0.628E+00    0.626E+00
DAV:   7    -0.969746043911E+03    0.36204E+00   -0.71180E+00  1200   0.547E+00    0.456E+00
DAV:   8    -0.968744534832E+03    0.10015E+01   -0.33868E+00  1216   0.368E+00    0.266E+00
DAV:   9    -0.968629843406E+03    0.11469E+00   -0.21677E+00  1200   0.213E+00    0.193E+00
DAV:  10    -0.968515376792E+03    0.11447E+00   -0.65303E-01  1216   0.124E+00    0.138E+00
DAV:  11    -0.968522767976E+03   -0.73912E-02   -0.19614E-01  1248   0.618E-01    0.159E+00
DAV:  12    -0.968522990386E+03   -0.22241E-03   -0.58633E-02  1200   0.293E-01    0.169E+00
DAV:  13    -0.968524108179E+03   -0.11178E-02   -0.94661E-03  1504   0.101E-01    0.200E+00
DAV:  14    -0.968524554877E+03   -0.44670E-03   -0.47632E-02  1136   0.350E-01    0.204E+00
DAV:  15    -0.968523934226E+03    0.62065E-03   -0.55706E-02  1072   0.397E-01    0.169E+00
DAV:  16    -0.968523553303E+03    0.38092E-03   -0.19882E-02  1248   0.227E-01    0.145E+00
DAV:  17    -0.968523572554E+03   -0.19251E-04   -0.34526E-03  1248   0.738E-02    0.136E+00
DAV:  18    -0.968523941879E+03   -0.36932E-03   -0.55489E-04  1184   0.275E-02    0.130E+00
DAV:  19    -0.968524752817E+03   -0.81094E-03   -0.12899E-04   752   0.141E-02    0.118E+00
DAV:  20    -0.968528120988E+03   -0.33682E-02   -0.96237E-04  1008   0.285E-02    0.703E-01
DAV:  21    -0.968529142655E+03   -0.10217E-02   -0.20584E-04   944   0.168E-02    0.567E-01
DAV:  22    -0.968530175508E+03   -0.10329E-02   -0.13550E-04   880   0.136E-02    0.444E-01
DAV:  23    -0.968531604251E+03   -0.14287E-02   -0.21795E-04   896   0.130E-02    0.258E-01
DAV:  24    -0.968532294384E+03   -0.69013E-03   -0.83128E-05   864   0.878E-03    0.163E-01
DAV:  25    -0.968532991355E+03   -0.69697E-03   -0.10301E-04   880   0.857E-03    0.716E-02
DAV:  26    -0.968533196974E+03   -0.20562E-03   -0.21098E-05   640   0.515E-03    0.670E-02
DAV:  27    -0.968533304601E+03   -0.10763E-03   -0.14272E-05   592   0.404E-03    0.871E-02
DAV:  28    -0.968533372178E+03   -0.67577E-04   -0.63644E-06   544   0.290E-03
   1 F= -.96853337E+03 E0= -.96858382E+03  d E =0.151331E+00
