 vasp.5.4.4.18Apr17-6-g9f103f2a35 (build May 07 2018 22:18:08) complex          
  
 executed on             LinuxIFC date 2020.08.16  13:16:23
 running on   64 total cores
 distrk:  each k-point on   64 cores,    1 groups
 distr:  one band on NCORES_PER_BAND=   4 cores,   16 groups


--------------------------------------------------------------------------------------------------------


 INCAR:
 POTCAR:    PAW Al 17Apr2000                      
 POTCAR:    PAW Al 17Apr2000                      
   VRHFIN =Al: s2p1                                                             
   LEXCH  = CA                                                                  
   EATOM  =    53.7930 eV,    3.9537 Ry                                         
                                                                                
   TITEL  = PAW Al 17Apr2000                                                    
   LULTRA =        F    use ultrasoft PP ?                                      
   IUNSCR =        1    unscreen: 0-lin 1-nonlin 2-no                           
   RPACOR =    1.500    partial core radius                                     
   POMASS =   26.981; ZVAL   =    3.000    mass and valenz                      
   RCORE  =    1.900    outmost cutoff radius                                   
   RWIGS  =    2.650; RWIGS  =    1.402    wigner-seitz radius (au A)           
   ENMAX  =  240.957; ENMIN  =  180.718 eV                                      
   ICORE  =        2    local potential                                         
   LCOR   =        T    correct aug charges                                     
   LPAW   =        T    paw PP                                                  
   EAUG   =  291.052                                                            
   DEXC   =    0.000                                                            
   RMAX   =    1.939    core radius for proj-oper                               
   RAUG   =    1.300    factor for augmentation sphere                          
   RDEP   =    1.966    radius for radial grids                                 
   RDEPT  =    1.871    core radius for aug-charge                              
                                                                                
   Atomic configuration                                                         
    6 entries                                                                   
     n  l   j            E        occ.                                          
     1  0  0.50     -1502.2303   2.0000                                         
     2  0  0.50      -107.3893   2.0000                                         
     2  1  1.50       -69.6946   6.0000                                         
     3  0  0.50        -7.8312   2.0000                                         
     3  1  1.50        -2.7901   1.0000                                         
     3  2  2.50        -2.7212   0.0000                                         
   Description                                                                  
     l       E           TYP  RCUT    TYP  RCUT                                 
     0     -7.8312058     23  1.900                                             
     0     -3.5156079     23  1.900                                             
     1     -2.7900872     23  1.900                                             
     1     13.6058260     23  1.900                                             
     2     -2.7211652      7  1.900                                             
  local pseudopotential read in
  partial core-charges read in
  partial kinetic energy density read in
  atomic valenz-charges read in
  non local Contribution for L=           0  read in
    real space projection operators read in
  non local Contribution for L=           0  read in
    real space projection operators read in
  non local Contribution for L=           1  read in
    real space projection operators read in
  non local Contribution for L=           1  read in
    real space projection operators read in
    PAW grid and wavefunctions read in
 
   number of l-projection  operators is LMAX  =           4
   number of lm-projection operators is LMMAX =           8
 

 ----------------------------------------------------------------------------- 
|                                                                             |
|  ADVICE TO THIS USER RUNNING 'VASP/VAMP'   (HEAR YOUR MASTER'S VOICE ...):  |
|                                                                             |
|      You have a (more or less) 'large supercell' and for larger cells       |
|      it might be more efficient to use real space projection opertators     |
|      So try LREAL= Auto  in the INCAR   file.                               |
|      Mind:          For very  accurate calculation you might also keep the  |
|      reciprocal projection scheme          (i.e. LREAL=.FALSE.)             |
|                                                                             |
 ----------------------------------------------------------------------------- 

  PAW Al 17Apr2000                      :
 energy of atom  1       EATOM=  -53.7930
 kinetic energy error for atom=    0.0031 (will be added to EATOM!!)
 
 
 POSCAR: Al                                      
  positions in cartesian coordinates
  No initial velocities read in
 exchange correlation table for  LEXCH =        2
   RHO(1)=    0.500       N(1)  =     2000
   RHO(2)=  100.500       N(2)  =     4000
 


--------------------------------------------------------------------------------------------------------


 ion  position               nearest neighbor table
   1  0.113  0.073  0.345-  25 2.71  21 2.81   4 2.82  26 2.82  29 2.85   2 2.87  30 2.92   5 3.07

   2  0.361  0.081  0.340-   1 2.87  30 2.93   3 2.93   6 2.96  22 2.96  26 2.97  27 3.05  31 3.10

   3  0.615  0.082  0.347-  27 2.74  31 2.77  28 2.81  32 2.82   7 2.89  23 2.91   4 2.92   2 2.93

   4  0.868  0.085  0.341-  24 2.81   1 2.82   8 2.87   3 2.92  32 2.94  29 2.95  28 3.00  25 3.08

   5  0.110  0.252  0.343-   8 2.73  33 2.81  30 2.88  34 2.90  29 2.91   9 2.93   6 3.01   1 3.07

   6  0.373  0.252  0.345-  30 2.73  34 2.74   7 2.76  31 2.82  10 2.84  35 2.93   2 2.96   5 3.01

   7  0.613  0.250  0.343-   6 2.76  11 2.80  31 2.88   3 2.89  32 2.94  36 2.94   8 2.96  35 2.97

   8  0.872  0.251  0.345-   5 2.73  32 2.79  12 2.81  33 2.82  29 2.84  36 2.84   4 2.87   7 2.96

   9  0.117  0.422  0.342-  37 2.83  13 2.85  34 2.89  10 2.90  38 2.90   5 2.93  12 2.94  33 3.05

  10  0.370  0.417  0.343-  34 2.76  39 2.77  11 2.79  38 2.81  14 2.83   6 2.84   9 2.90  35 2.95

  11  0.613  0.412  0.343-  10 2.79   7 2.80  35 2.82  12 2.83  39 2.86  36 2.88  40 2.96  15 2.97

  12  0.860  0.414  0.343-   8 2.81  11 2.83  36 2.85  40 2.87   9 2.94  37 2.95  16 3.00  33 3.07

  13  0.114  0.588  0.342-  14 2.74  17 2.78  41 2.84   9 2.85  42 2.93  16 2.94  38 3.01  37 3.05

  14  0.353  0.581  0.342-  18 2.73  13 2.74  38 2.74  10 2.83  39 2.85  42 2.88  15 2.91  43 2.93

  15  0.607  0.585  0.342-  19 2.78  43 2.78  39 2.84  16 2.87  14 2.91  11 2.97  44 2.99  40 3.00

  16  0.858  0.589  0.343-  44 2.78  20 2.82  40 2.82  41 2.84  15 2.87  13 2.94  12 3.00  37 3.12

  17  0.113  0.750  0.344-  21 2.75  13 2.78  18 2.80  41 2.89  45 2.89  46 2.90  20 2.94  42 2.96

  18  0.357  0.740  0.343-  14 2.73  42 2.77  17 2.80  43 2.81  46 2.91  22 2.92  47 2.95  19 2.99

  19  0.618  0.746  0.344-  20 2.73  15 2.78  44 2.79  48 2.81  43 2.82  47 2.84  23 2.86  18 2.99

  20  0.857  0.753  0.342-  19 2.73  16 2.82  48 2.84  44 2.86  24 2.89  17 2.94  45 2.96  41 3.03

  21  0.111  0.910  0.343-  17 2.75   1 2.81  45 2.89  46 2.91  24 2.91  22 2.93  25 2.95  26 3.05

  22  0.367  0.909  0.344-  46 2.78  47 2.82  23 2.85  26 2.86  27 2.90  18 2.92  21 2.93   2 2.96

  23  0.616  0.913  0.343-  48 2.73  24 2.77  22 2.85  19 2.86  47 2.89   3 2.91  27 2.91  28 3.02

  24  0.857  0.922  0.343-  23 2.77   4 2.81  28 2.85  48 2.88  20 2.89  21 2.91  25 3.02  45 3.05

  25  0.999  1.000  0.380-  49 2.70   1 2.71  69 2.76  29 2.81  26 2.88  28 2.89  52 2.89  45 2.90
                            72 2.94  21 2.95  24 3.02   4 3.08
  26  0.250  0.998  0.379-  50 2.75  27 2.76  69 2.82   1 2.82  22 2.86  46 2.86  25 2.88  70 2.90
                            49 2.91  30 2.95   2 2.97  21 3.05
  27  0.492  0.999  0.379-   3 2.74  26 2.76  50 2.81  70 2.82  71 2.82  51 2.84  31 2.88  22 2.90
                            23 2.91  28 2.93  47 2.97   2 3.05
  28  0.747  0.002  0.380-   3 2.81  71 2.82  52 2.84  32 2.85  24 2.85  51 2.86  48 2.87  25 2.89
                            27 2.93  72 2.94   4 3.00  23 3.02
  29  0.993  0.163  0.379-  49 2.75  25 2.81  32 2.81  53 2.82   8 2.84  33 2.84   1 2.85  56 2.87
                            52 2.87   5 2.91  30 2.93   4 2.95
  30  0.248  0.170  0.377-   6 2.73  31 2.81  53 2.84   5 2.88  54 2.88  34 2.89   1 2.92  50 2.92
                            29 2.93   2 2.93  26 2.95  49 3.01
  31  0.493  0.167  0.379-  51 2.73   3 2.77  30 2.81  54 2.81   6 2.82  55 2.83  50 2.86   7 2.88
                            27 2.88  32 2.92  35 2.98   2 3.10
  32  0.748  0.167  0.379-  56 2.74   8 2.79  55 2.81  29 2.81   3 2.82  28 2.85  51 2.85  36 2.88
                            31 2.92  52 2.93   7 2.94   4 2.94
  33  0.999  0.328  0.380-  57 2.74  53 2.74  37 2.80  60 2.81  56 2.81   5 2.81   8 2.82  29 2.84
                            34 2.87  36 2.95   9 3.05  12 3.07
  34  0.249  0.338  0.376-   6 2.74  10 2.76  38 2.78  57 2.82  58 2.82  33 2.87  35 2.87  54 2.88
                            30 2.89   9 2.89   5 2.90  53 3.00
  35  0.498  0.340  0.380-  59 2.67  55 2.77  54 2.77  39 2.78  58 2.79  36 2.79  11 2.82  34 2.87
                             6 2.93  10 2.95   7 2.97  31 2.98
  36  0.742  0.335  0.379-  55 2.74  60 2.79  56 2.79  35 2.79  59 2.82   8 2.84  12 2.85  40 2.88
                            32 2.88  11 2.88   7 2.94  33 2.95
  37  0.996  0.491  0.379-  60 2.70  57 2.75  61 2.77  33 2.80   9 2.83  64 2.85  40 2.89  41 2.94
                            12 2.95  38 2.95  13 3.05  16 3.12
  38  0.253  0.500  0.377-  39 2.66  14 2.74  34 2.78  58 2.81  10 2.81  42 2.83  62 2.86  61 2.89
                             9 2.90  57 2.92  37 2.95  13 3.01
  39  0.485  0.501  0.376-  38 2.66  43 2.77  10 2.77  35 2.78  15 2.84  62 2.84  14 2.85  11 2.86
                            59 2.90  63 2.91  58 2.96  40 2.97
  40  0.744  0.502  0.378-  63 2.78  64 2.81  16 2.82  59 2.82  44 2.86  60 2.86  12 2.87  36 2.88
                            37 2.89  11 2.96  39 2.97  15 3.00
  41  0.991  0.662  0.378-  68 2.72  64 2.78  13 2.84  16 2.84  61 2.86  44 2.86  17 2.89  65 2.90
                            45 2.90  42 2.91  37 2.94  20 3.03
  42  0.245  0.664  0.379-  18 2.77  43 2.82  38 2.83  62 2.84  65 2.85  14 2.88  46 2.88  66 2.88
                            61 2.88  41 2.91  13 2.93  17 2.96
  43  0.491  0.662  0.377-  39 2.77  15 2.78  18 2.81  47 2.82  19 2.82  42 2.82  63 2.84  62 2.86
                            44 2.87  14 2.93  66 2.96  67 2.98
  44  0.741  0.669  0.378-  68 2.76  16 2.78  19 2.79  63 2.80  67 2.82  40 2.86  20 2.86  41 2.86
                            48 2.87  43 2.87  64 2.91  15 2.99
  45  0.989  0.831  0.380-  68 2.76  69 2.77  65 2.79  72 2.82  21 2.89  17 2.89  41 2.90  25 2.90
                            46 2.92  48 2.95  20 2.96  24 3.05
  46  0.244  0.832  0.379-  69 2.72  22 2.78  65 2.82  47 2.84  26 2.86  42 2.88  70 2.89  17 2.90
                            18 2.91  21 2.91  45 2.92  66 2.94
  47  0.491  0.826  0.378-  48 2.77  43 2.82  22 2.82  70 2.82  46 2.84  19 2.84  67 2.86  66 2.88
                            23 2.89  71 2.92  18 2.95  27 2.97
  48  0.732  0.835  0.377-  23 2.73  47 2.77  19 2.81  71 2.82  20 2.84  44 2.87  28 2.87  24 2.88
                            67 2.89  45 2.95  72 3.00  68 3.03
  49  0.111  0.083  0.413-  25 2.70  29 2.75  52 2.77  74 2.78  53 2.80  77 2.81  73 2.91  26 2.91
                            50 2.91  69 2.95  30 3.01  78 3.04
  50  0.366  0.080  0.413-  74 2.73  26 2.75  27 2.81  51 2.83  31 2.86  75 2.87  70 2.90  49 2.91
                            78 2.92  30 2.92  54 3.00  79 3.04
  51  0.612  0.088  0.412-  31 2.73  79 2.80  50 2.83  55 2.83  27 2.84  32 2.85  28 2.86  75 2.89
                            80 2.91  71 2.94  76 2.95  52 2.96
  52  0.870  0.082  0.415-  49 2.77  77 2.78  80 2.78  76 2.82  28 2.84  29 2.87  56 2.88  25 2.89
                            73 2.92  32 2.93  72 2.95  51 2.96
  53  0.122  0.245  0.412-  33 2.74  78 2.79  49 2.80  77 2.81  29 2.82  30 2.84  54 2.86  57 2.86
                            81 2.89  82 2.95  56 2.99  34 3.00
  54  0.371  0.255  0.412-  58 2.77  35 2.77  31 2.81  83 2.82  78 2.82  53 2.86  34 2.88  30 2.88
                            55 2.88  82 2.92  50 3.00  79 3.06
  55  0.623  0.252  0.412-  56 2.73  36 2.74  35 2.77  32 2.81  51 2.83  31 2.83  80 2.83  84 2.84
                            83 2.88  54 2.88  59 2.91  79 2.94
  56  0.861  0.250  0.412-  80 2.72  55 2.73  32 2.74  36 2.79  33 2.81  84 2.84  60 2.86  29 2.87
                            52 2.88  77 2.89  81 2.90  53 2.99
  57  0.123  0.412  0.412-  58 2.72  33 2.74  37 2.75  81 2.79  82 2.79  61 2.81  34 2.82  53 2.86
                            86 2.89  60 2.89  38 2.92  85 2.95
  58  0.360  0.416  0.413-  86 2.70  57 2.72  82 2.77  54 2.77  35 2.79  38 2.81  34 2.82  62 2.84
                            87 2.87  83 2.90  59 2.93  39 2.96
  59  0.616  0.422  0.412-  35 2.67  87 2.72  63 2.77  36 2.82  40 2.82  84 2.87  39 2.90  55 2.91
                            60 2.91  83 2.93  58 2.93  88 2.94
  60  0.870  0.416  0.412-  37 2.70  36 2.79  81 2.80  33 2.81  64 2.83  84 2.85  56 2.86  40 2.86
                            85 2.88  57 2.89  59 2.91  88 2.92
  61  0.115  0.575  0.412-  85 2.72  37 2.77  86 2.80  64 2.80  57 2.81  89 2.84  41 2.86  42 2.88
                            38 2.89  62 2.97  90 3.01  65 3.02
  62  0.374  0.581  0.413-  86 2.75  87 2.76  63 2.82  66 2.84  39 2.84  42 2.84  58 2.84  38 2.86
                            43 2.86  91 2.87  90 2.88  61 2.97
  63  0.620  0.583  0.411-  59 2.77  40 2.78  44 2.80  87 2.80  62 2.82  67 2.83  43 2.84  91 2.86
                            64 2.88  88 2.91  39 2.91  92 3.05
  64  0.871  0.581  0.412-  68 2.76  41 2.78  85 2.79  61 2.80  88 2.80  40 2.81  60 2.83  92 2.84
                            37 2.85  63 2.88  89 2.88  44 2.91
  65  0.118  0.751  0.413-  69 2.76  89 2.79  45 2.79  68 2.82  46 2.82  93 2.83  94 2.85  42 2.85
                            41 2.90  66 2.91  90 2.94  61 3.02
  66  0.371  0.746  0.415-  90 2.76  94 2.80  95 2.82  91 2.83  62 2.84  70 2.85  67 2.85  47 2.88
                            42 2.88  65 2.91  46 2.94  43 2.96
  67  0.620  0.747  0.413-  91 2.81  44 2.82  63 2.83  95 2.85  66 2.85  47 2.86  96 2.88  68 2.89
                            48 2.89  71 2.92  92 2.94  43 2.98
  68  0.872  0.741  0.411-  41 2.72  44 2.76  45 2.76  64 2.76  92 2.78  65 2.82  89 2.83  67 2.89
                            72 2.91  96 2.92  93 2.96  48 3.03
  69  0.122  0.911  0.411-  46 2.72  25 2.76  65 2.76  45 2.77  26 2.82  74 2.82  94 2.88  72 2.89
                            93 2.92  49 2.95  70 2.95  73 3.05
  70  0.380  0.912  0.413-  71 2.73  95 2.81  27 2.82  47 2.82  75 2.83  66 2.85  94 2.86  74 2.86
                            46 2.89  26 2.90  50 2.90  69 2.95
  71  0.618  0.917  0.413-  70 2.73  48 2.82  27 2.82  28 2.82  75 2.86  96 2.89  72 2.90  76 2.91
                            95 2.91  67 2.92  47 2.92  51 2.94
  72  0.870  0.910  0.415-  96 2.62  93 2.74  45 2.82  69 2.89  71 2.90  68 2.91  25 2.94  28 2.94
                            76 2.94  52 2.95  73 2.97  48 3.00
  73  0.001  0.999  0.450-  74 2.77 120 2.79 117 2.82 100 2.87  93 2.89  49 2.91  77 2.92  97 2.92
                            52 2.92  72 2.97  76 3.01  69 3.05
  74  0.241  0.000  0.445-  50 2.73  73 2.77  49 2.78  69 2.82  70 2.86 117 2.89  94 2.90  75 2.91
                           118 3.01  78 3.04  98 3.09  97 3.12
  75  0.495  0.000  0.448-  76 2.80  70 2.83  71 2.86  79 2.87  50 2.87  51 2.89 118 2.89  98 2.89
                           119 2.91  74 2.91  95 2.93  99 2.97
  76  0.739  0.003  0.449-  99 2.72  75 2.80  52 2.82 119 2.84 100 2.87  96 2.91  71 2.91 120 2.92
                            80 2.92  72 2.94  51 2.95  73 3.01
  77  0.995  0.168  0.447-  52 2.78  49 2.81  53 2.81  80 2.84 100 2.85  81 2.89  56 2.89  73 2.92
                            78 2.94  97 2.95 101 3.02 104 3.08
  78  0.252  0.177  0.447-  82 2.78  53 2.79 102 2.80 101 2.80  54 2.82  98 2.90  79 2.92  50 2.92
                            77 2.94  97 3.01  74 3.04  49 3.04
  79  0.506  0.167  0.449-  80 2.77  98 2.80  51 2.80  83 2.84  75 2.87 103 2.87 102 2.89  78 2.92
                            99 2.94  55 2.94  50 3.04  54 3.06
  80  0.747  0.173  0.446-  56 2.72  79 2.77  52 2.78  84 2.82  55 2.83  77 2.84 100 2.86  51 2.91
                            76 2.92 103 2.93 104 2.98  99 3.03
  81  0.995  0.336  0.446-  57 2.79  60 2.80  82 2.83  85 2.85  77 2.89  53 2.89  56 2.90 108 2.91
                           105 2.91  84 2.92 104 2.98 101 3.01
  82  0.243  0.338  0.448- 105 2.76  58 2.77  86 2.78  78 2.78 101 2.78  57 2.79  81 2.83 106 2.88
                            83 2.88  54 2.92  53 2.95 102 2.98
  83  0.494  0.332  0.447-  54 2.82  84 2.83  79 2.84  82 2.88  55 2.88  87 2.89 102 2.89  58 2.90
                           106 2.90  59 2.93 107 2.95 103 2.97
  84  0.740  0.337  0.446- 107 2.78  80 2.82  83 2.83  55 2.84  56 2.84  60 2.85  59 2.87  88 2.88
                           104 2.91  81 2.92 103 2.94 108 2.99
  85  0.994  0.502  0.446-  61 2.72  64 2.79  89 2.81  88 2.81 109 2.85  81 2.85 108 2.87  60 2.88
                            86 2.94  57 2.95 105 3.00 112 3.07
  86  0.251  0.500  0.446-  58 2.70  62 2.75  82 2.78  61 2.80 106 2.83  90 2.85  87 2.86  57 2.89
                           110 2.93  85 2.94 109 2.95 105 2.99
  87  0.501  0.500  0.445-  59 2.72  62 2.76  63 2.80  91 2.81  88 2.85  86 2.86  58 2.87 106 2.87
                            83 2.89 111 2.89 107 2.90 110 2.97
  88  0.749  0.504  0.447- 107 2.79  92 2.80  64 2.80  85 2.81  87 2.85  84 2.88  63 2.91 108 2.91
                           111 2.92  60 2.92 112 2.93  59 2.94
  89  0.001  0.666  0.446-  92 2.73  65 2.79  85 2.81  68 2.83 113 2.83  61 2.84  93 2.84  90 2.86
                            64 2.88 109 2.98 112 3.03 116 3.04
  90  0.250  0.666  0.448- 113 2.74  66 2.76 110 2.79 114 2.84  86 2.85  94 2.85  89 2.86  62 2.88
                            91 2.90  65 2.94 109 2.99  61 3.01
  91  0.503  0.663  0.447- 111 2.65  67 2.81  87 2.81 110 2.82  66 2.83  63 2.86  62 2.87  95 2.87
                            90 2.90 115 2.90 114 2.92  92 2.97
  92  0.762  0.667  0.448-  89 2.73 112 2.78  68 2.78  88 2.80  64 2.84  96 2.89 115 2.91 116 2.92
                           111 2.93  67 2.94  91 2.97  63 3.05
  93  0.994  0.831  0.448-  72 2.74  96 2.75 116 2.81  65 2.83  89 2.84 120 2.88  94 2.89  73 2.89
                           113 2.90  69 2.92  68 2.96 117 3.01
  94  0.246  0.832  0.447-  66 2.80 117 2.83 113 2.83 114 2.84  65 2.85  90 2.85  70 2.86  95 2.86
                            69 2.88  93 2.89  74 2.90 118 2.97
  95  0.496  0.830  0.448- 114 2.77  70 2.81  66 2.82 115 2.84  67 2.85 119 2.86  94 2.86  91 2.87
                            71 2.91  75 2.93  96 2.95 118 2.98
  96  0.754  0.834  0.446-  72 2.62  93 2.75 120 2.87  67 2.88  92 2.89  71 2.89  76 2.91  68 2.92
                           116 2.92 115 2.93 119 2.93  95 2.95
  97  0.123  0.092  0.485- 126 2.70 125 2.70 101 2.81 121 2.82  98 2.89 122 2.89  73 2.92 100 2.92
                            77 2.95  78 3.01 117 3.01  74 3.12
  98  0.375  0.090  0.482- 127 2.72 102 2.74  79 2.80 123 2.85  75 2.89  97 2.89 118 2.89  78 2.90
                           126 2.95  99 2.96 122 3.02  74 3.09
  99  0.633  0.078  0.484- 124 2.68 100 2.70  76 2.72 123 2.80 128 2.81 119 2.82 127 2.82  79 2.94
                            98 2.96  75 2.97 103 2.98  80 3.03
 100  0.868  0.091  0.482- 125 2.67  99 2.70  77 2.85  80 2.86  73 2.87  76 2.87  97 2.92 104 2.93
                           128 2.97 121 2.98 124 2.98 120 3.00
 101  0.134  0.255  0.483- 105 2.71 102 2.73 126 2.76  82 2.78 130 2.79  78 2.80  97 2.81  81 3.01
                           125 3.01  77 3.02 129 3.02 104 3.11
 102  0.373  0.249  0.483- 101 2.73  98 2.74  78 2.80 127 2.81 131 2.85 126 2.86  79 2.89  83 2.89
                           103 2.91 130 2.93  82 2.98 106 3.00
 103  0.626  0.252  0.484- 104 2.72 128 2.73 127 2.82 132 2.83  79 2.87 131 2.90 107 2.90 102 2.91
                            80 2.93  84 2.94  83 2.97  99 2.98
 104  0.863  0.261  0.484- 103 2.72 108 2.74 132 2.79 129 2.80 125 2.82  84 2.91 100 2.93 128 2.94
                            81 2.98  80 2.98  77 3.08 101 3.11
 105  0.125  0.413  0.483- 101 2.71  82 2.76 109 2.77 130 2.80 108 2.83 106 2.85 134 2.89  81 2.91
                           129 2.96  86 2.99 133 2.99  85 3.00
 106  0.373  0.424  0.481- 110 2.78  86 2.83 135 2.85 105 2.85  87 2.87  82 2.88  83 2.90 107 2.95
                           131 2.97 130 3.00 134 3.00 102 3.00
 107  0.630  0.420  0.481- 136 2.74  84 2.78  88 2.79 108 2.83  87 2.90 103 2.90 111 2.91 132 2.92
                           106 2.95  83 2.95 135 2.97 131 3.08
 108  0.877  0.420  0.483- 133 2.71 104 2.74 107 2.83 105 2.83 129 2.87  85 2.87  88 2.91  81 2.91
                           112 2.91 136 2.93 132 2.99  84 2.99
 109  0.119  0.574  0.483- 134 2.75 105 2.77 138 2.78  85 2.85 133 2.86 113 2.92 137 2.92 110 2.93
                           112 2.93  86 2.95  89 2.98  90 2.99
 110  0.374  0.585  0.482- 111 2.72 139 2.75 106 2.78  90 2.79  91 2.82 138 2.82 114 2.85  86 2.93
                           109 2.93 135 2.96  87 2.97 134 3.02
 111  0.611  0.589  0.481-  91 2.65 110 2.72 139 2.74 115 2.79 140 2.83  87 2.89 112 2.91 107 2.91
                            88 2.92 136 2.92  92 2.93 135 2.99
 112  0.864  0.589  0.485- 137 2.75  92 2.78 140 2.78 133 2.82 136 2.86 116 2.89 111 2.91 108 2.91
                           109 2.93  88 2.93  89 3.03  85 3.07
 113  0.128  0.744  0.481- 138 2.72  90 2.74 114 2.81  94 2.83  89 2.83 142 2.85 116 2.89  93 2.90
                           109 2.92 137 2.94 141 2.98 117 2.98
 114  0.373  0.751  0.482-  95 2.77 113 2.81 139 2.82  90 2.84  94 2.84 142 2.85 110 2.85 143 2.86
                           138 2.89 115 2.91  91 2.92 118 2.92
 115  0.627  0.751  0.482- 144 2.77 111 2.79 140 2.80 119 2.81  95 2.84 116 2.86 139 2.89  91 2.90
                           114 2.91  92 2.91  96 2.93 143 2.98
 116  0.877  0.757  0.484- 141 2.70 120 2.74 144 2.78  93 2.81 137 2.84 115 2.86 113 2.89 112 2.89
                            92 2.92  96 2.92  89 3.04 140 3.05
 117  0.137  0.917  0.483- 118 2.65 122 2.78 142 2.79  73 2.82  94 2.83  74 2.89 121 2.90 141 2.93
                           113 2.98  93 3.01  97 3.01 120 3.04
 118  0.368  0.921  0.484- 117 2.65 123 2.77 122 2.79 143 2.80  75 2.89  98 2.89 142 2.91 119 2.91
                           114 2.92  94 2.97  95 2.98  74 3.01
 119  0.622  0.914  0.483- 144 2.79 124 2.79 115 2.81  99 2.82  76 2.84 143 2.86  95 2.86 120 2.86
                           123 2.89  75 2.91 118 2.91  96 2.93
 120  0.872  0.916  0.483- 116 2.74  73 2.79 124 2.83 141 2.85 144 2.86 119 2.86 121 2.87  96 2.87
                            93 2.88  76 2.92 100 3.00 117 3.04
 121  0.001  0.000  0.517- 145 2.74 168 2.75 122 2.79 165 2.80  97 2.82 125 2.83 120 2.87 141 2.88
                           148 2.89 117 2.90 124 2.98 100 2.98
 122  0.244  0.998  0.518- 117 2.78 166 2.79 121 2.79 165 2.79 146 2.79 118 2.79 123 2.87 145 2.89
                            97 2.89 142 2.93 126 3.00  98 3.02
 123  0.494  0.002  0.517- 127 2.77 118 2.77 147 2.80  99 2.80 143 2.83 124 2.83  98 2.85 122 2.87
                           167 2.88 119 2.89 166 2.90 146 2.91
 124  0.741  0.995  0.517-  99 2.68 168 2.74 119 2.79 144 2.79 167 2.83 123 2.83 120 2.83 147 2.91
                           148 2.94 121 2.98 100 2.98 128 3.03
 125  0.983  0.165  0.515- 100 2.67  97 2.70 148 2.80 104 2.82 121 2.83 128 2.87 126 2.92 129 2.93
                           145 2.93 149 2.94 101 3.01 152 3.05
 126  0.237  0.172  0.518-  97 2.70 149 2.73 150 2.75 101 2.76 130 2.83 146 2.85 102 2.86 125 2.92
                           145 2.94  98 2.95 127 2.99 122 3.00
 127  0.498  0.163  0.516- 128 2.70  98 2.72 123 2.77 147 2.81 102 2.81 103 2.82  99 2.82 146 2.92
                           131 2.93 150 2.96 126 2.99 151 3.03
 128  0.733  0.171  0.519- 127 2.70 103 2.73 151 2.76 147 2.81  99 2.81 132 2.84 152 2.86 125 2.87
                           148 2.87 104 2.94 100 2.97 124 3.03
 129  0.988  0.335  0.519- 104 2.80 133 2.80 149 2.81 153 2.83 156 2.83 152 2.83 132 2.83 108 2.87
                           130 2.92 125 2.93 105 2.96 101 3.02
 130  0.243  0.337  0.518- 153 2.77 101 2.79 105 2.80 154 2.83 131 2.83 126 2.83 134 2.84 150 2.85
                           149 2.88 129 2.92 102 2.93 106 3.00
 131  0.490  0.334  0.518- 135 2.80 130 2.83 102 2.85 154 2.86 150 2.86 132 2.87 103 2.90 155 2.91
                           127 2.93 151 2.94 106 2.97 107 3.08
 132  0.741  0.337  0.519- 155 2.77 152 2.77 104 2.79 136 2.79 103 2.83 129 2.83 151 2.84 128 2.84
                           131 2.87 156 2.88 107 2.92 108 2.99
 133  0.982  0.498  0.518- 108 2.71 129 2.80 160 2.80 156 2.81 112 2.82 109 2.86 136 2.88 137 2.89
                           134 2.90 157 2.99 105 2.99 153 3.01
 134  0.235  0.502  0.519- 109 2.75 158 2.78 138 2.79 157 2.84 130 2.84 154 2.85 153 2.86 105 2.89
                           133 2.90 135 2.97 106 3.00 110 3.02
 135  0.494  0.497  0.518- 136 2.71 158 2.73 155 2.78 131 2.80 154 2.80 106 2.85 139 2.88 110 2.96
                           134 2.97 159 2.97 107 2.97 111 2.99
 136  0.731  0.499  0.517- 135 2.71 107 2.74 155 2.75 132 2.79 159 2.80 140 2.84 112 2.86 133 2.88
                           111 2.92 108 2.93 160 2.99 156 3.02
 137  0.994  0.666  0.517- 112 2.75 164 2.80 161 2.81 138 2.81 116 2.84 141 2.87 133 2.89 109 2.92
                           160 2.93 157 2.94 113 2.94 140 3.03
 138  0.239  0.664  0.515- 113 2.72 109 2.78 134 2.79 142 2.80 137 2.81 110 2.82 161 2.85 114 2.89
                           139 2.90 162 2.93 158 2.97 157 3.05
 139  0.492  0.664  0.516- 140 2.73 111 2.74 110 2.75 114 2.82 162 2.83 158 2.85 135 2.88 115 2.89
                           138 2.90 163 2.96 143 2.97 159 3.03
 140  0.729  0.664  0.518- 159 2.70 139 2.73 112 2.78 163 2.80 115 2.80 164 2.80 111 2.83 136 2.84
                           144 2.90 160 3.01 137 3.03 116 3.05
 141  0.998  0.833  0.517- 116 2.70 142 2.79 168 2.80 161 2.82 120 2.85 165 2.85 137 2.87 121 2.88
                           117 2.93 144 2.94 164 2.95 113 2.98
 142  0.242  0.827  0.517- 161 2.75 162 2.77 117 2.79 141 2.79 138 2.80 143 2.83 114 2.85 113 2.85
                           118 2.91 166 2.91 165 2.93 122 2.93
 143  0.489  0.837  0.517- 162 2.76 166 2.78 118 2.80 142 2.83 123 2.83 114 2.86 119 2.86 167 2.86
                           163 2.89 144 2.90 139 2.97 115 2.98
 144  0.742  0.833  0.517- 115 2.77 116 2.78 119 2.79 124 2.79 168 2.84 120 2.86 163 2.86 164 2.87
                           143 2.90 140 2.90 167 2.91 141 2.94
 145  0.107  0.081  0.552- 148 2.71 121 2.74 169 2.76 173 2.79 165 2.80 149 2.86 122 2.89 146 2.91
                           125 2.93 126 2.94 174 2.95 170 2.96
 146  0.361  0.085  0.551- 150 2.76 122 2.79 174 2.81 126 2.85 175 2.86 170 2.87 147 2.88 166 2.91
                           145 2.91 123 2.91 127 2.92 171 3.03
 147  0.613  0.083  0.551- 175 2.77 123 2.80 127 2.81 128 2.81 167 2.83 176 2.87 146 2.88 151 2.89
                           124 2.91 171 2.92 172 2.93 148 2.95
 148  0.870  0.086  0.551- 145 2.71 125 2.80 173 2.81 172 2.81 169 2.83 176 2.83 168 2.85 128 2.87
                           121 2.89 152 2.92 124 2.94 147 2.95
 149  0.115  0.247  0.551- 126 2.73 129 2.81 153 2.82 150 2.83 173 2.84 145 2.86 130 2.88 125 2.94
                           152 2.95 177 2.98 178 2.98 174 3.00
 150  0.362  0.246  0.552- 126 2.75 146 2.76 178 2.82 149 2.83 130 2.85 131 2.86 175 2.87 174 2.91
                           179 2.93 127 2.96 154 2.99 151 3.00
 151  0.624  0.251  0.554- 152 2.69 179 2.74 128 2.76 175 2.77 180 2.79 176 2.80 132 2.84 147 2.89
                           155 2.94 131 2.94 150 3.00 127 3.03
 152  0.858  0.255  0.553- 180 2.68 151 2.69 132 2.77 156 2.81 129 2.83 176 2.84 128 2.86 177 2.88
                           173 2.91 148 2.92 149 2.95 125 3.05
 153  0.122  0.411  0.553- 178 2.72 130 2.77 154 2.79 177 2.79 149 2.82 129 2.83 134 2.86 156 2.89
                           157 2.92 182 2.92 133 3.01 181 3.03
 154  0.366  0.420  0.552- 178 2.71 158 2.74 153 2.79 135 2.80 130 2.83 183 2.84 134 2.85 131 2.86
                           179 2.88 182 2.89 155 2.94 150 2.99
 155  0.623  0.421  0.552- 184 2.70 136 2.75 132 2.77 135 2.78 159 2.80 183 2.81 156 2.84 179 2.86
                           131 2.91 180 2.92 151 2.94 154 2.94
 156  0.871  0.419  0.554- 160 2.74 177 2.75 184 2.76 180 2.80 133 2.81 152 2.81 129 2.83 155 2.84
                           181 2.86 132 2.88 153 2.89 136 3.02
 157  0.115  0.581  0.554- 186 2.75 160 2.80 134 2.84 182 2.85 181 2.88 161 2.89 153 2.92 185 2.93
                           137 2.94 158 2.97 133 2.99 138 3.05
 158  0.373  0.579  0.551- 135 2.73 154 2.74 134 2.78 183 2.79 186 2.80 139 2.85 162 2.93 138 2.97
                           157 2.97 159 2.97 187 3.00 182 3.01
 159  0.632  0.584  0.553- 140 2.70 184 2.73 160 2.74 188 2.77 136 2.80 155 2.80 183 2.81 163 2.88
                           187 2.88 158 2.97 135 2.97 139 3.03
 160  0.871  0.578  0.553- 159 2.74 156 2.74 157 2.80 133 2.80 184 2.81 164 2.85 181 2.88 185 2.90
                           188 2.90 137 2.93 136 2.99 140 3.01
 161  0.122  0.749  0.551- 142 2.75 189 2.79 137 2.81 141 2.82 138 2.85 162 2.86 157 2.89 190 2.90
                           165 2.91 186 2.94 164 2.99 185 3.07
 162  0.372  0.750  0.550- 143 2.76 142 2.77 163 2.80 191 2.81 139 2.83 190 2.85 166 2.86 161 2.86
                           186 2.91 138 2.93 158 2.93 187 3.04
 163  0.617  0.752  0.552- 191 2.80 140 2.80 162 2.80 164 2.81 144 2.86 167 2.86 159 2.88 143 2.89
                           187 2.91 192 2.92 188 2.95 139 2.96
 164  0.862  0.744  0.551- 137 2.80 140 2.80 163 2.81 160 2.85 144 2.87 188 2.89 192 2.93 189 2.93
                           185 2.93 141 2.95 161 2.99 168 3.03
 165  0.117  0.918  0.552- 122 2.79 169 2.80 170 2.80 145 2.80 168 2.80 121 2.80 189 2.84 141 2.85
                           166 2.87 161 2.91 142 2.93 190 3.01
 166  0.368  0.916  0.552- 170 2.77 143 2.78 122 2.79 167 2.85 162 2.86 190 2.87 165 2.87 191 2.87
                           123 2.90 146 2.91 142 2.91 171 2.93
 167  0.617  0.918  0.552- 172 2.73 147 2.83 124 2.83 171 2.85 166 2.85 143 2.86 163 2.86 123 2.88
                           144 2.91 192 2.93 168 2.94 191 2.95
 168  0.873  0.920  0.549- 172 2.73 124 2.74 121 2.75 141 2.80 165 2.80 169 2.82 144 2.84 148 2.85
                           167 2.94 189 3.02 164 3.03 192 3.03
 169  0.989  0.998  0.585- 172 2.69 145 2.76 165 2.80 168 2.82 148 2.83 196 2.84 173 2.86 216 2.87
                           213 2.92 193 2.92 189 2.94 170 2.95
 170  0.246  0.993  0.586- 166 2.77 165 2.80 194 2.83 174 2.86 171 2.87 146 2.87 213 2.88 190 2.88
                           214 2.89 193 2.91 169 2.95 145 2.96
 171  0.496  0.997  0.588- 215 2.69 194 2.78 195 2.80 167 2.85 170 2.87 175 2.89 214 2.90 147 2.92
                           166 2.93 191 2.94 172 2.97 146 3.03
 172  0.754  0.992  0.584- 169 2.69 168 2.73 167 2.73 192 2.73 216 2.79 148 2.81 196 2.90 176 2.92
                           147 2.93 215 2.94 171 2.97 195 3.16
 173  0.991  0.164  0.586- 196 2.76 145 2.79 200 2.80 148 2.81 176 2.84 149 2.84 169 2.86 174 2.90
                           152 2.91 193 2.92 197 2.98 177 2.99
 174  0.244  0.159  0.588- 193 2.79 194 2.80 146 2.81 198 2.83 170 2.86 175 2.90 173 2.90 150 2.91
                           197 2.93 145 2.95 149 3.00 178 3.07
 175  0.497  0.165  0.585- 147 2.77 151 2.77 195 2.82 176 2.82 146 2.86 150 2.87 179 2.88 171 2.89
                           174 2.90 198 2.94 199 3.00 194 3.00
 176  0.744  0.161  0.586- 196 2.70 151 2.80 175 2.82 148 2.83 173 2.84 195 2.84 152 2.84 147 2.87
                           200 2.88 172 2.92 180 2.94 199 3.06
 177  0.991  0.338  0.587- 156 2.75 181 2.76 180 2.76 153 2.79 200 2.81 204 2.81 197 2.83 201 2.83
                           152 2.88 149 2.98 173 2.99 178 3.01
 178  0.253  0.338  0.585- 154 2.71 153 2.72 202 2.79 182 2.79 179 2.81 150 2.82 197 2.90 201 2.91
                           198 2.95 149 2.98 177 3.01 174 3.07
 179  0.498  0.332  0.586- 151 2.74 178 2.81 199 2.81 202 2.82 155 2.86 180 2.88 154 2.88 175 2.88
                           203 2.90 150 2.93 183 2.96 198 3.00
 180  0.749  0.332  0.587- 152 2.68 177 2.76 151 2.79 156 2.80 200 2.81 204 2.82 184 2.83 199 2.87
                           179 2.88 203 2.89 155 2.92 176 2.94
 181  0.990  0.499  0.590- 204 2.73 177 2.76 201 2.79 205 2.83 156 2.86 208 2.87 160 2.88 157 2.88
                           182 2.89 184 2.90 185 2.91 153 3.03
 182  0.243  0.499  0.589- 205 2.71 186 2.77 201 2.77 178 2.79 206 2.84 157 2.85 202 2.88 154 2.89
                           181 2.89 183 2.92 153 2.92 158 3.01
 183  0.496  0.504  0.586- 187 2.75 184 2.77 158 2.79 155 2.81 159 2.81 207 2.83 154 2.84 182 2.92
                           206 2.93 179 2.96 202 2.99 203 2.99
 184  0.738  0.497  0.586- 155 2.70 159 2.73 156 2.76 183 2.77 160 2.81 180 2.83 207 2.87 203 2.88
                           204 2.89 188 2.89 181 2.90 208 3.05
 185  0.984  0.668  0.589- 212 2.64 189 2.74 188 2.76 209 2.79 208 2.81 205 2.86 160 2.90 181 2.91
                           157 2.93 164 2.93 161 3.07 186 3.10
 186  0.254  0.660  0.585- 157 2.75 182 2.77 158 2.80 205 2.81 187 2.83 190 2.85 162 2.91 210 2.93
                           161 2.94 209 3.03 206 3.04 185 3.10
 187  0.501  0.664  0.588- 183 2.75 211 2.77 188 2.77 191 2.79 186 2.83 207 2.84 210 2.84 159 2.88
                           163 2.91 158 3.00 206 3.03 162 3.04
 188  0.743  0.665  0.588- 211 2.71 185 2.76 187 2.77 159 2.77 208 2.83 212 2.87 207 2.89 164 2.89
                           184 2.89 160 2.90 192 2.90 163 2.95
 189  0.001  0.827  0.585- 185 2.74 209 2.79 161 2.79 213 2.81 165 2.84 190 2.90 192 2.90 212 2.92
                           164 2.93 169 2.94 216 3.02 168 3.02
 190  0.254  0.826  0.586- 191 2.66 214 2.74 209 2.84 162 2.85 186 2.85 166 2.87 170 2.88 210 2.89
                           189 2.90 161 2.90 213 2.91 165 3.01
 191  0.486  0.826  0.586- 190 2.66 187 2.79 163 2.80 162 2.81 214 2.81 166 2.87 210 2.91 215 2.91
                           171 2.94 167 2.95 211 2.99 192 3.00
 192  0.748  0.834  0.587- 216 2.73 172 2.73 215 2.81 211 2.90 189 2.90 188 2.90 212 2.91 163 2.92
                           164 2.93 167 2.93 191 3.00 168 3.03
 193  0.118  0.078  0.621- 222 2.74 174 2.79 194 2.83 217 2.85 213 2.89 218 2.89 221 2.89 196 2.90
                           170 2.91 173 2.92 169 2.92 197 3.09
 194  0.365  0.074  0.621- 222 2.74 219 2.75 171 2.78 174 2.80 223 2.82 170 2.83 193 2.83 218 2.83
                           195 2.84 214 2.90 198 2.93 175 3.00
 195  0.612  0.085  0.621- 223 2.67 224 2.72 219 2.78 171 2.80 175 2.82 220 2.83 194 2.84 176 2.84
                           215 2.90 196 2.91 199 2.99 172 3.16
 196  0.866  0.085  0.619- 176 2.70 173 2.76 224 2.76 200 2.81 169 2.84 216 2.88 172 2.90 193 2.90
                           195 2.91 221 2.93 220 2.96 217 3.07
 197  0.121  0.258  0.621- 201 2.70 225 2.79 198 2.81 177 2.83 200 2.84 226 2.86 178 2.90 222 2.92
                           174 2.93 221 2.98 173 2.98 193 3.09
 198  0.366  0.244  0.622- 222 2.73 223 2.74 197 2.81 202 2.82 174 2.83 199 2.85 194 2.93 175 2.94
                           227 2.94 178 2.95 226 3.00 179 3.00
 199  0.614  0.259  0.622- 203 2.66 227 2.75 228 2.76 179 2.81 223 2.83 224 2.84 198 2.85 180 2.87
                           200 2.98 195 2.99 175 3.00 176 3.06
 200  0.874  0.248  0.620- 173 2.80 180 2.81 224 2.81 196 2.81 177 2.81 228 2.84 197 2.84 221 2.85
                           176 2.88 225 2.91 204 2.91 199 2.98
 201  0.122  0.415  0.622- 197 2.70 182 2.77 181 2.79 229 2.82 177 2.83 230 2.88 226 2.90 225 2.91
                           178 2.91 202 2.91 204 2.94 205 2.95
 202  0.376  0.408  0.621- 178 2.79 203 2.80 198 2.82 179 2.82 206 2.84 231 2.88 182 2.88 227 2.90
                           201 2.91 183 2.99 226 3.01 230 3.09
 203  0.620  0.414  0.622- 199 2.66 207 2.80 202 2.80 231 2.80 204 2.81 228 2.83 184 2.88 180 2.89
                           179 2.90 232 2.92 227 2.94 183 2.99
 204  0.865  0.417  0.622- 181 2.73 232 2.78 228 2.78 203 2.81 177 2.81 180 2.82 229 2.89 184 2.89
                           200 2.91 208 2.92 201 2.94 225 2.98
 205  0.129  0.586  0.621- 182 2.71 206 2.78 234 2.80 186 2.81 209 2.82 233 2.83 181 2.83 229 2.84
                           185 2.86 201 2.95 230 2.98 208 3.05
 206  0.371  0.573  0.624- 231 2.74 205 2.78 235 2.79 207 2.84 182 2.84 202 2.84 230 2.86 234 2.87
                           210 2.88 183 2.93 187 3.03 186 3.04
 207  0.618  0.576  0.622- 203 2.80 208 2.82 231 2.82 183 2.83 206 2.84 187 2.84 211 2.84 184 2.87
                           232 2.89 188 2.89 235 2.92 236 2.97
 208  0.863  0.587  0.624- 212 2.75 232 2.78 236 2.78 229 2.78 185 2.81 207 2.82 233 2.83 188 2.83
                           181 2.87 204 2.92 184 3.05 205 3.05
 209  0.118  0.751  0.621- 233 2.74 213 2.74 212 2.77 185 2.79 189 2.79 205 2.82 190 2.84 234 2.85
                           237 2.91 210 2.91 238 2.98 186 3.03
 210  0.371  0.741  0.623- 234 2.72 235 2.74 239 2.76 214 2.82 187 2.84 206 2.88 190 2.89 238 2.91
                           191 2.91 209 2.91 211 2.93 186 2.93
 211  0.627  0.742  0.621- 188 2.71 187 2.77 239 2.78 236 2.80 207 2.84 212 2.86 192 2.90 235 2.92
                           210 2.93 240 2.97 191 2.99 215 3.00
 212  0.876  0.746  0.622- 185 2.64 208 2.75 233 2.75 209 2.77 237 2.78 211 2.86 188 2.87 236 2.90
                           192 2.91 189 2.92 216 2.94 240 2.94
 213  0.115  0.910  0.620- 209 2.74 189 2.81 214 2.88 170 2.88 193 2.89 237 2.89 216 2.89 190 2.91
                           217 2.92 169 2.92 218 2.96 238 3.08
 214  0.366  0.905  0.621- 190 2.74 239 2.76 191 2.81 210 2.82 215 2.87 213 2.88 170 2.89 238 2.90
                           171 2.90 194 2.90 219 2.91 218 2.93
 215  0.616  0.916  0.620- 171 2.69 239 2.78 192 2.81 219 2.81 216 2.82 214 2.87 195 2.90 191 2.91
                           220 2.92 172 2.94 211 3.00 240 3.04
 216  0.862  0.917  0.620- 192 2.73 172 2.79 215 2.82 169 2.87 196 2.88 213 2.89 240 2.92 220 2.93
                           237 2.93 212 2.94 217 2.97 189 3.02
 217  0.998  0.997  0.657- 218 2.81 237 2.84 193 2.85 221 2.89 213 2.92 216 2.97 220 3.01 196 3.07

 218  0.244  0.994  0.656- 217 2.81 222 2.83 194 2.83 219 2.87 238 2.88 193 2.89 214 2.93 213 2.96

 219  0.494  0.998  0.654- 194 2.75 220 2.77 195 2.78 223 2.81 215 2.81 218 2.87 214 2.91 239 2.91

 220  0.736  0.003  0.656- 224 2.75 219 2.77 195 2.83 215 2.92 216 2.93 240 2.95 196 2.96 217 3.01

 221  0.992  0.165  0.656- 225 2.79 224 2.84 200 2.85 217 2.89 193 2.89 222 2.92 196 2.93 197 2.98

 222  0.246  0.158  0.653- 198 2.73 194 2.74 193 2.74 218 2.83 223 2.83 221 2.92 197 2.92 226 2.99

 223  0.493  0.162  0.653- 195 2.67 198 2.74 219 2.81 194 2.82 199 2.83 222 2.83 227 2.86 224 2.88

 224  0.744  0.163  0.653- 195 2.72 220 2.75 196 2.76 200 2.81 199 2.84 221 2.84 228 2.87 223 2.88

 225  0.999  0.327  0.657- 226 2.73 197 2.79 221 2.79 228 2.84 200 2.91 201 2.91 204 2.98 229 3.05

 226  0.237  0.331  0.659- 225 2.73 230 2.82 197 2.86 201 2.90 227 2.96 222 2.99 198 3.00 202 3.01

 227  0.495  0.327  0.658- 199 2.75 231 2.85 223 2.86 202 2.90 228 2.93 203 2.94 198 2.94 226 2.96

 228  0.751  0.330  0.655- 199 2.76 204 2.78 203 2.83 225 2.84 200 2.84 224 2.87 232 2.88 227 2.93

 229  0.000  0.504  0.655- 230 2.71 208 2.78 201 2.82 232 2.83 205 2.84 233 2.85 204 2.89 225 3.05

 230  0.236  0.495  0.659- 229 2.71 226 2.82 206 2.86 201 2.88 205 2.98 231 3.00 234 3.00 202 3.09

 231  0.497  0.493  0.657- 206 2.74 203 2.80 207 2.82 227 2.85 202 2.88 232 2.93 235 2.94 230 3.00

 232  0.753  0.497  0.657- 208 2.78 204 2.78 229 2.83 228 2.88 207 2.89 203 2.92 231 2.93 236 2.94

 233  0.006  0.670  0.655- 234 2.70 209 2.74 212 2.75 237 2.79 205 2.83 208 2.83 229 2.85 236 3.00

 234  0.242  0.669  0.656- 233 2.70 238 2.71 210 2.72 205 2.80 235 2.83 209 2.85 206 2.87 230 3.00

 235  0.488  0.664  0.657- 210 2.74 206 2.79 234 2.83 239 2.85 207 2.92 211 2.92 236 2.93 231 2.94

 236  0.744  0.668  0.658- 208 2.78 211 2.80 240 2.83 212 2.90 235 2.93 232 2.94 207 2.97 233 3.00

 237  0.987  0.832  0.656- 240 2.73 212 2.78 233 2.79 217 2.84 213 2.89 209 2.91 216 2.93 238 3.01

 238  0.250  0.827  0.659- 234 2.71 218 2.88 214 2.90 239 2.90 210 2.91 209 2.98 237 3.01 213 3.08

 239  0.501  0.829  0.653- 210 2.76 214 2.76 211 2.78 215 2.78 235 2.85 240 2.85 238 2.90 219 2.91

 240  0.749  0.832  0.658- 237 2.73 236 2.83 239 2.85 216 2.92 212 2.94 220 2.95 211 2.97 215 3.04

 
  LATTYP: Found a simple orthorhombic cell.
 ALAT       =    11.4551298552
 B/A-ratio  =     1.5000000000
 C/A-ratio  =     5.0828755969
  
  Lattice vectors:
  
 A1 = (  11.4551298552,   0.0000000000,   0.0000000000)
 A2 = (   0.0000000000,  17.1826947828,   0.0000000000)
 A3 = (   0.0000000000,   0.0000000000,  58.2250000000)


Analysis of symmetry for initial positions (statically):
=====================================================================
 Subroutine PRICEL returns:
 Original cell was already a primitive cell.
 

 Routine SETGRP: Setting up the symmetry group for a 
 simple orthorhombic supercell.


 Subroutine GETGRP returns: Found  1 space group operations
 (whereof  1 operations were pure point group operations)
 out of a pool of  8 trial point group operations.


The static configuration has the point symmetry C_1 .


Analysis of symmetry for dynamics (positions and initial velocities):
=====================================================================
 Subroutine PRICEL returns:
 Original cell was already a primitive cell.
 

 Routine SETGRP: Setting up the symmetry group for a 
 simple orthorhombic supercell.


 Subroutine GETGRP returns: Found  1 space group operations
 (whereof  1 operations were pure point group operations)
 out of a pool of  8 trial point group operations.


The dynamic configuration has the point symmetry C_1 .


 Subroutine INISYM returns: Found  1 space group operations
 (whereof  1 operations are pure point group operations),
 and found     1 'primitive' translations

 
 
 KPOINTS: KPOINTS created by Atomic Simulation Env

Automatic generation of k-mesh.
Space group operators:
 irot       det(A)        alpha          n_x          n_y          n_z        tau_x        tau_y        tau_z
    1     1.000000     0.000000     1.000000     0.000000     0.000000     0.000000     0.000000     0.000000
 
 Subroutine IBZKPT returns following result:
 ===========================================
 
 Found      1 irreducible k-points:
 
 Following reciprocal coordinates:
            Coordinates               Weight
  0.000000  0.000000  0.000000      1.000000
 
 Following cartesian coordinates:
            Coordinates               Weight
  0.000000  0.000000  0.000000      1.000000
 


--------------------------------------------------------------------------------------------------------




 Dimension of arrays:
   k-points           NKPTS =      1   k-points in BZ     NKDIM =      1   number of bands    NBANDS=    496
   number of dos      NEDOS =    301   number of ions     NIONS =    240
   non local maximal  LDIM  =      4   non local SUM 2l+1 LMDIM =      8
   total plane-waves  NPLWV = 752640
   max r-space proj   IRMAX =      1   max aug-charges    IRDMAX=   2755
   dimension x,y,z NGX =    48 NGY =   70 NGZ =  224
   dimension x,y,z NGXF=    96 NGYF=  140 NGZF=  448
   support grid    NGXF=    96 NGYF=  140 NGZF=  448
   ions per type =             240
   NGX,Y,Z   is equivalent  to a cutoff of   6.97,  6.77,  6.40 a.u.
   NGXF,Y,Z  is equivalent  to a cutoff of  13.93, 13.55, 12.79 a.u.

 SYSTEM =  unknown system                          
 POSCAR =  Al                                      

 Startparameter for this run:
   NWRITE =      2    write-flag & timer
   PREC   = normal    normal or accurate (medium, high low for compatibility)
   ISTART =      1    job   : 0-new  1-cont  2-samecut
   ICHARG =      0    charge: 1-file 2-atom 10-const
   ISPIN  =      1    spin polarized calculation?
   LNONCOLLINEAR =      F non collinear calculations
   LSORBIT =      F    spin-orbit coupling
   INIWAV =      1    electr: 0-lowe 1-rand  2-diag
   LASPH  =      F    aspherical Exc in radial PAW
   METAGGA=      F    non-selfconsistent MetaGGA calc.

 Electronic Relaxation 1
   ENCUT  =  241.0 eV  17.71 Ry    4.21 a.u.  14.50 21.75 73.69*2*pi/ulx,y,z
   ENINI  =  241.0     initial cutoff
   ENAUG  =  291.1 eV  augmentation charge cutoff
   NELM   =     60;   NELMIN=  2; NELMDL=  0     # of ELM steps 
   EDIFF  = 0.1E-03   stopping-criterion for ELM
   LREAL  =      F    real-space projection
   NLSPLINE    = F    spline interpolate recip. space projectors
   LCOMPAT=      F    compatible to vasp.4.4
   GGA_COMPAT  = T    GGA compatible to vasp.4.4-vasp.4.6
   LMAXPAW     = -100 max onsite density
   LMAXMIX     =    2 max onsite mixed and CHGCAR
   VOSKOWN=      0    Vosko Wilk Nusair interpolation
   ROPT   =    0.00000
 Ionic relaxation
   EDIFFG = 0.1E-02   stopping-criterion for IOM
   NSW    =      0    number of steps for IOM
   NBLOCK =      1;   KBLOCK =      1    inner block; outer block 
   IBRION =     -1    ionic relax: 0-MD 1-quasi-New 2-CG
   NFREE  =      0    steps in history (QN), initial steepest desc. (CG)
   ISIF   =      2    stress and relaxation
   IWAVPR =     10    prediction:  0-non 1-charg 2-wave 3-comb
   ISYM   =      2    0-nonsym 1-usesym 2-fastsym
   LCORR  =      T    Harris-Foulkes like correction to forces

   POTIM  = 0.5000    time-step for ionic-motion
   TEIN   =    0.0    initial temperature
   TEBEG  =    0.0;   TEEND  =   0.0 temperature during run
   SMASS  =  -3.00    Nose mass-parameter (am)
   estimated Nose-frequenzy (Omega)   =  0.10E-29 period in steps =****** mass=  -0.300E-26a.u.
   SCALEE = 1.0000    scale energy and forces
   NPACO  =    256;   APACO  = 16.0  distance and # of slots for P.C.
   PSTRESS=    0.0 pullay stress

  Mass of Ions in am
   POMASS =  26.98
  Ionic Valenz
   ZVAL   =   3.00
  Atomic Wigner-Seitz radii
   RWIGS  =  -1.00
  virtual crystal weights 
   VCA    =   1.00
   NELECT =     720.0000    total number of electrons
   NUPDOWN=      -1.0000    fix difference up-down

 DOS related values:
   EMIN   =  10.00;   EMAX   =-10.00  energy-range for DOS
   EFERMI =   0.00
   ISMEAR =     1;   SIGMA  =   0.20  broadening in eV -4-tet -1-fermi 0-gaus

 Electronic relaxation 2 (details)
   IALGO  =     38    algorithm
   LDIAG  =      T    sub-space diagonalisation (order eigenvalues)
   LSUBROT=      F    optimize rotation matrix (better conditioning)
   TURBO    =      0    0=normal 1=particle mesh
   IRESTART =      0    0=no restart 2=restart with 2 vectors
   NREBOOT  =      0    no. of reboots
   NMIN     =      0    reboot dimension
   EREF     =   0.00    reference energy to select bands
   IMIX   =      4    mixing-type and parameters
     AMIX     =   0.40;   BMIX     =  1.00
     AMIX_MAG =   1.60;   BMIX_MAG =  1.00
     AMIN     =   0.10
     WC   =   100.;   INIMIX=   1;  MIXPRE=   1;  MAXMIX= -45

 Intra band minimization:
   WEIMIN = 0.0000     energy-eigenvalue tresh-hold
   EBREAK =  0.50E-07  absolut break condition
   DEPER  =   0.30     relativ break condition  

   TIME   =   0.40     timestep for ELM

  volume/ion in A,a.u.               =      47.75       322.24
  Fermi-wavevector in a.u.,A,eV,Ry     =   0.650807  1.229846  5.762740  0.423549
  Thomas-Fermi vector in A             =   1.720204
 
 Write flags
   LWAVE        =      T    write WAVECAR
   LDOWNSAMPLE  =      F    k-point downsampling of WAVECAR
   LCHARG       =      T    write CHGCAR
   LVTOT        =      F    write LOCPOT, total local potential
   LVHAR        =      F    write LOCPOT, Hartree potential only
   LELF         =      F    write electronic localiz. function (ELF)
   LORBIT       =      0    0 simple, 1 ext, 2 COOP (PROOUT), +10 PAW based schemes


 Dipole corrections
   LMONO  =      F    monopole corrections only (constant potential shift)
   LDIPOL =      F    correct potential (dipole corrections)
   IDIPOL =      0    1-x, 2-y, 3-z, 4-all directions 
   EPSILON=  1.0000000 bulk dielectric constant

 Exchange correlation treatment:
   GGA     =    --    GGA type
   LEXCH   =     2    internal setting for exchange type
   VOSKOWN=      0    Vosko Wilk Nusair interpolation
   LHFCALC =     F    Hartree Fock is set to
   LHFONE  =     F    Hartree Fock one center treatment
   AEXX    =    0.0000 exact exchange contribution

 Linear response parameters
   LEPSILON=     F    determine dielectric tensor
   LRPA    =     F    only Hartree local field effects (RPA)
   LNABLA  =     F    use nabla operator in PAW spheres
   LVEL    =     F    velocity operator in full k-point grid
   LINTERFAST=   F  fast interpolation
   KINTER  =     0    interpolate to denser k-point grid
   CSHIFT  =0.1000    complex shift for real part using Kramers Kronig
   OMEGAMAX=  -1.0    maximum frequency
   DEG_THRESHOLD= 0.2000000E-02 threshold for treating states as degnerate
   RTIME   =   -0.100 relaxation time in fs
  (WPLASMAI=    0.000 imaginary part of plasma frequency in eV, 0.658/RTIME)
   DFIELD  = 0.0000000 0.0000000 0.0000000 field for delta impulse in time
 
 Orbital magnetization related:
   ORBITALMAG=     F  switch on orbital magnetization
   LCHIMAG   =     F  perturbation theory with respect to B field
   DQ        =  0.001000  dq finite difference perturbation B field
   LLRAUG    =     F  two centre corrections for induced B field


 ----------------------------------------------------------------------------- 
|                                                                             |
|           W    W    AA    RRRRR   N    N  II  N    N   GGGG   !!!           |
|           W    W   A  A   R    R  NN   N  II  NN   N  G    G  !!!           |
|           W    W  A    A  R    R  N N  N  II  N N  N  G       !!!           |
|           W WW W  AAAAAA  RRRRR   N  N N  II  N  N N  G  GGG   !            |
|           WW  WW  A    A  R   R   N   NN  II  N   NN  G    G                |
|           W    W  A    A  R    R  N    N  II  N    N   GGGG   !!!           |
|                                                                             |
|      One of the lattice vectors is very long (>50 A), but AMIN is rather    |
|      large. This can spoil convergence since charge sloshing might occur    |
|      along the long lattice vector. If problems with convergence are        |
|      observed, try to decrease AMIN to a smaller values (e.g. 0.01).        |
|      Note: this warning only applies if the selfconsistency cycle is used.  |
|                                                                             |
 ----------------------------------------------------------------------------- 



--------------------------------------------------------------------------------------------------------


 Static calculation
 charge density and potential will be updated during run
 non-spin polarized calculation
 Variant of blocked Davidson
 Davidson routine will perform the subspace rotation
 perform sub-space diagonalisation
    after iterative eigenvector-optimisation
 modified Broyden-mixing scheme, WC =      100.0
 initial mixing is a Kerker type mixing with AMIX =  0.4000 and BMIX =      1.0000
 Hartree-type preconditioning will be used
 using additional bands          136
 reciprocal scheme for non local part
 use partial core corrections
 calculate Harris-corrections to forces 
   (improved forces if not selfconsistent)
 use of overlap-Matrix (Vanderbilt PP)
 Methfessel and Paxton  Order N= 1 SIGMA  =   0.20


--------------------------------------------------------------------------------------------------------


  energy-cutoff  :      240.96
  volume of cell :    11460.43
      direct lattice vectors                 reciprocal lattice vectors
    11.455129855  0.000000000  0.000000000     0.087297133  0.000000000  0.000000000
     0.000000000 17.182694783  0.000000000     0.000000000  0.058198089  0.000000000
     0.000000000  0.000000000 58.225000000     0.000000000  0.000000000  0.017174753

  length of vectors
    11.455129855 17.182694783 58.225000000     0.087297133  0.058198089  0.017174753


 
 old parameters found on file WAVECAR:
  energy-cutoff  :      240.96
  volume of cell :    11460.43
      direct lattice vectors                 reciprocal lattice vectors
    11.455129855  0.000000000  0.000000000     0.087297133  0.000000000  0.000000000
     0.000000000 17.182694783  0.000000000     0.000000000  0.058198089  0.000000000
     0.000000000  0.000000000 58.225000000     0.000000000  0.000000000  0.017174753

  length of vectors

 
 k-points in units of 2pi/SCALE and weight: KPOINTS created by Atomic Simulation Env
   0.00000000  0.00000000  0.00000000       1.000
 
 k-points in reciprocal lattice and weights: KPOINTS created by Atomic Simulation Env
   0.00000000  0.00000000  0.00000000       1.000
 
 position of ions in fractional coordinates (direct lattice) 
   0.11258043  0.07282645  0.34531242
   0.36130483  0.08094457  0.33988200
   0.61505055  0.08159473  0.34651658
   0.86810602  0.08487685  0.34120106
   0.10970015  0.25162356  0.34319530
   0.37264916  0.25191258  0.34490803
   0.61329023  0.24965830  0.34310627
   0.87165368  0.25117588  0.34540470
   0.11682457  0.42224058  0.34199661
   0.36977238  0.41672669  0.34256279
   0.61293002  0.41240164  0.34300591
   0.86031079  0.41448195  0.34271201
   0.11426852  0.58836818  0.34213121
   0.35312878  0.58106813  0.34189873
   0.60700874  0.58501342  0.34154811
   0.85764284  0.58919102  0.34336850
   0.11337519  0.74986874  0.34350708
   0.35716515  0.73964513  0.34338774
   0.61816166  0.74627960  0.34352918
   0.85655861  0.75320303  0.34242763
   0.11092473  0.90969957  0.34286397
   0.36661158  0.90932035  0.34442914
   0.61564338  0.91254767  0.34321676
   0.85733453  0.92155176  0.34271055
   0.99911577  0.99959886  0.37998055
   0.25036297  0.99827064  0.37898436
   0.49155437  0.99893966  0.37869823
   0.74728513  0.00187911  0.37970050
   0.99265011  0.16284631  0.37904736
   0.24806817  0.16979414  0.37664627
   0.49273475  0.16676804  0.37892244
   0.74768756  0.16749984  0.37856505
   0.99949843  0.32818191  0.37995539
   0.24869101  0.33782104  0.37625645
   0.49833814  0.34038581  0.38014879
   0.74202723  0.33489938  0.37886697
   0.99582283  0.49110390  0.37928486
   0.25297282  0.49961414  0.37728236
   0.48544433  0.50141797  0.37614909
   0.74441093  0.50223540  0.37787505
   0.99098916  0.66228484  0.37844413
   0.24508450  0.66427976  0.37914597
   0.49098718  0.66247428  0.37675249
   0.74109986  0.66850291  0.37805589
   0.98915569  0.83095043  0.37954425
   0.24372971  0.83203651  0.37873924
   0.49130180  0.82624517  0.37818292
   0.73238145  0.83520577  0.37713966
   0.11137543  0.08274823  0.41263848
   0.36580711  0.08027000  0.41254386
   0.61214016  0.08805664  0.41223674
   0.86972110  0.08217445  0.41490531
   0.12182322  0.24544600  0.41226247
   0.37073543  0.25470316  0.41177059
   0.62253717  0.25237292  0.41157958
   0.86087525  0.24968951  0.41230450
   0.12303494  0.41169423  0.41175562
   0.36027953  0.41570158  0.41281945
   0.61624540  0.42151635  0.41168860
   0.87047134  0.41593279  0.41176356
   0.11528877  0.57505825  0.41244958
   0.37410966  0.58099456  0.41286344
   0.61992046  0.58268758  0.41120460
   0.87083195  0.58055971  0.41227549
   0.11782645  0.75066473  0.41272224
   0.37135846  0.74607716  0.41456273
   0.62048362  0.74749760  0.41330437
   0.87218514  0.74123830  0.41144072
   0.12206777  0.91145624  0.41135152
   0.37967551  0.91173215  0.41326081
   0.61806642  0.91720670  0.41250365
   0.87042530  0.91027177  0.41483732
   0.00110506  0.99880368  0.45020817
   0.24093291  0.00021327  0.44478860
   0.49459769  0.00013223  0.44755153
   0.73874770  0.00309105  0.44850327
   0.99538411  0.16834639  0.44682633
   0.25166898  0.17654751  0.44729431
   0.50623061  0.16669821  0.44881847
   0.74713757  0.17262446  0.44634656
   0.99528007  0.33625672  0.44587696
   0.24258047  0.33830747  0.44752961
   0.49353509  0.33152911  0.44700598
   0.74043585  0.33682632  0.44639474
   0.99421888  0.50239157  0.44647410
   0.25094393  0.49978910  0.44561475
   0.50066308  0.49953181  0.44532984
   0.74898920  0.50427358  0.44742062
   0.00069924  0.66565395  0.44638246
   0.25046325  0.66556069  0.44790011
   0.50317662  0.66296922  0.44748794
   0.76229557  0.66670606  0.44796561
   0.99424375  0.83097524  0.44756515
   0.24621509  0.83163325  0.44726985
   0.49626742  0.82990970  0.44811316
   0.75390712  0.83446143  0.44637224
   0.12289184  0.09192976  0.48469875
   0.37509688  0.08970312  0.48241126
   0.63305557  0.07816276  0.48401761
   0.86795657  0.09060721  0.48197685
   0.13426791  0.25535711  0.48258514
   0.37274068  0.24908496  0.48318993
   0.62639817  0.25160964  0.48398105
   0.86323710  0.26109676  0.48398471
   0.12463445  0.41297215  0.48255745
   0.37303072  0.42358720  0.48142181
   0.63039731  0.42014928  0.48111339
   0.87741543  0.41997342  0.48269040
   0.11867802  0.57429297  0.48317822
   0.37350859  0.58534820  0.48176903
   0.61089728  0.58899525  0.48134712
   0.86393764  0.58916499  0.48477485
   0.12786436  0.74368726  0.48109316
   0.37319052  0.75140083  0.48187562
   0.62727465  0.75081626  0.48235547
   0.87700735  0.75705762  0.48393593
   0.13680359  0.91712250  0.48272046
   0.36809404  0.92148251  0.48362711
   0.62194794  0.91424992  0.48251876
   0.87176835  0.91627582  0.48266169
   0.00105952  0.00015562  0.51689401
   0.24434096  0.99762620  0.51822589
   0.49425377  0.00186177  0.51663546
   0.74117964  0.99521749  0.51673989
   0.98292800  0.16461140  0.51535544
   0.23736984  0.17215751  0.51762522
   0.49813771  0.16315886  0.51592994
   0.73342943  0.17139350  0.51852031
   0.98844374  0.33468857  0.51902701
   0.24344823  0.33703394  0.51808451
   0.49034033  0.33368973  0.51830457
   0.74103719  0.33668918  0.51898634
   0.98213572  0.49762846  0.51761669
   0.23537615  0.50235564  0.51854277
   0.49423192  0.49665254  0.51827040
   0.73090195  0.49900946  0.51680844
   0.99350303  0.66563495  0.51748638
   0.23882383  0.66427582  0.51505415
   0.49158754  0.66423626  0.51558437
   0.72926433  0.66424385  0.51783972
   0.99812536  0.83256312  0.51682957
   0.24198596  0.82719713  0.51684350
   0.48855098  0.83722631  0.51725763
   0.74154327  0.83284749  0.51659493
   0.10697747  0.08072373  0.55176334
   0.36101558  0.08489317  0.55145697
   0.61274506  0.08266874  0.55129233
   0.87036124  0.08562295  0.55115722
   0.11510232  0.24678454  0.55128128
   0.36202829  0.24577054  0.55154401
   0.62382831  0.25065947  0.55368921
   0.85821878  0.25536672  0.55308370
   0.12246231  0.41097552  0.55300202
   0.36590592  0.41983010  0.55245742
   0.62258020  0.42141724  0.55213786
   0.87071400  0.41879809  0.55380343
   0.11490454  0.58093472  0.55431924
   0.37315903  0.57910474  0.55062298
   0.63179498  0.58436616  0.55283239
   0.87058891  0.57823343  0.55329296
   0.12235857  0.74850712  0.55055510
   0.37231392  0.74967596  0.54976007
   0.61685319  0.75160075  0.55181992
   0.86185329  0.74381325  0.55081169
   0.11739871  0.91794880  0.55165631
   0.36777195  0.91570658  0.55160319
   0.61688060  0.91826501  0.55200228
   0.87291668  0.91969903  0.54903737
   0.98905253  0.99779667  0.58499607
   0.24626794  0.99309385  0.58587577
   0.49611889  0.99672201  0.58787941
   0.75412535  0.99205792  0.58350819
   0.99146738  0.16447564  0.58599935
   0.24443634  0.15917516  0.58781177
   0.49720379  0.16453390  0.58536011
   0.74358896  0.16139768  0.58638826
   0.99054560  0.33829720  0.58717346
   0.25324087  0.33754552  0.58549600
   0.49835285  0.33236621  0.58558631
   0.74941453  0.33240640  0.58690978
   0.99039024  0.49867933  0.58987778
   0.24254320  0.49923866  0.58883778
   0.49640659  0.50434549  0.58551905
   0.73768024  0.49668306  0.58586287
   0.98383953  0.66821878  0.58902695
   0.25378708  0.65962535  0.58512015
   0.50075899  0.66397100  0.58791449
   0.74275764  0.66480198  0.58786971
   0.00120164  0.82672031  0.58517322
   0.25415883  0.82557665  0.58649420
   0.48647093  0.82569351  0.58601864
   0.74832169  0.83368195  0.58722888
   0.11841826  0.07800435  0.62110768
   0.36538171  0.07385070  0.62105452
   0.61247183  0.08499423  0.62112826
   0.86599366  0.08458555  0.61878601
   0.12122710  0.25785500  0.62082423
   0.36609068  0.24442901  0.62178418
   0.61401738  0.25867650  0.62224095
   0.87361820  0.24787224  0.62016026
   0.12169376  0.41493209  0.62168320
   0.37572023  0.40837275  0.62116352
   0.61987141  0.41359468  0.62203704
   0.86537347  0.41696706  0.62165748
   0.12935330  0.58648933  0.62069760
   0.37065822  0.57328098  0.62443335
   0.61805844  0.57629249  0.62219153
   0.86334673  0.58660945  0.62358008
   0.11788035  0.75059131  0.62072095
   0.37119572  0.74102981  0.62280439
   0.62665239  0.74154059  0.62141754
   0.87634918  0.74633698  0.62195756
   0.11467231  0.91014094  0.62009063
   0.36556470  0.90478725  0.62092674
   0.61585779  0.91604935  0.61973920
   0.86234798  0.91679322  0.62022610
   0.99837329  0.99674950  0.65657016
   0.24390954  0.99422446  0.65634810
   0.49435772  0.99821474  0.65395375
   0.73595048  0.00342546  0.65561422
   0.99181707  0.16470511  0.65565131
   0.24593986  0.15834888  0.65319582
   0.49306414  0.16151648  0.65338267
   0.74437700  0.16284949  0.65255981
   0.99853382  0.32701443  0.65680805
   0.23679059  0.33121151  0.65863142
   0.49548184  0.32712247  0.65799714
   0.75113633  0.32971464  0.65504179
   0.00040029  0.50413615  0.65464251
   0.23610411  0.49528837  0.65873906
   0.49739743  0.49275337  0.65653390
   0.75347117  0.49702875  0.65682825
   0.00585465  0.66988459  0.65482725
   0.24172449  0.66931245  0.65566201
   0.48849157  0.66386916  0.65682585
   0.74409838  0.66787418  0.65757174
   0.98745345  0.83184374  0.65616106
   0.24979284  0.82655215  0.65861937
   0.50126005  0.82880944  0.65314073
   0.74881554  0.83226836  0.65762997
 
 position of ions in cartesian coordinates  (Angst):
   1.28962341  1.25135461 20.10581582
   4.13879375  1.39084581 19.78962938
   7.04548397  1.40201740 20.17592809
   9.94426722  1.45841303 19.86643190
   1.25662950  4.32357085 19.98254661
   4.26874457  4.32853693 20.08226978
   7.02531917  4.28980229 19.97736242
   9.98490609  4.31587847 20.11118878
   1.33824063  7.25523103 19.91275287
   4.23579060  7.16048749 19.94571847
   7.02119294  7.08617144 19.97151887
   9.85497178  7.12191682 19.95440705
   1.30896074 10.10975088 19.92058998
   4.04513608  9.98431640 19.90705375
   6.95336394 10.05210710 19.88663885
   9.82441009 10.12388939 19.99263101
   1.29872758 12.88476568 20.00069958
   4.09137323 12.70909646 19.99375096
   7.08112210 12.82309452 20.00198651
   9.81199005 12.94205775 19.93784874
   1.27065719 15.63109005 19.96325484
   4.19958328 15.62457398 20.05438678
   7.05227486 15.68002812 19.98379568
   9.82087842 15.83474269 19.95432160
  11.44500083 17.17580214 22.12436740
   2.86794036 17.15297972 22.06636420
   5.63081915 17.16447534 22.04970433
   8.56024816  0.03228816 22.10806160
  11.37093592  2.79813838 22.07003245
   2.84165305  2.91752093 21.93022894
   5.64434059  2.86552427 22.06275907
   8.56485806  2.87809854 22.04194997
  11.44938430  5.63904967 22.12290236
   2.84878787  5.80467589 21.90753156
   5.70852811  5.84874546 22.13416348
   8.50001822  5.75447386 22.05952926
  11.40727978  8.43848839 22.08386105
   2.89783655  8.58471734 21.96726547
   5.56082781  8.61571200 21.90128069
   8.52732392  8.62975765 22.00177496
  11.35190954 11.37983821 22.03490935
   2.80747474 11.41411643 22.07577427
   5.62432195 11.38309329 21.93641381
   8.48939511 11.48668151 22.01230409
  11.33090688 14.27796764 22.09896380
   2.79195544 14.29662946 22.05209237
   5.62792592 14.19711858 22.01970066
   8.38952456 14.35108587 21.95895677
   1.27582005  1.42183753 24.02587563
   4.19036795  1.37925483 24.02036599
   7.01214502  1.51305037 24.00248431
   9.96276817  1.41197851 24.15786150
   1.39550085  4.21742365 24.00398211
   4.24682254  4.37648662 23.97534273
   7.13124414  4.33644684 23.96422100
   9.86143780  4.29033867 24.00642980
   1.40938125  7.07401622 23.97447089
   4.12704884  7.14287331 24.03641228
   7.05917106  7.24278684 23.97056886
   9.97136221  7.14684613 23.97493302
   1.32064779  9.88105031 24.01487655
   4.28547471  9.98305213 24.03897354
   7.10126935 10.01214288 23.94238807
   9.97549311  9.97558023 24.00474069
   1.34971726 12.89844288 24.03075235
   4.25395943 12.81961616 24.13791468
   7.10772043 12.84402305 24.06464710
   9.99099399 12.73647148 23.95613578
   1.39830216 15.66127442 23.95094254
   4.34923230 15.66601525 24.06211069
   7.08003107 15.76008286 24.01802492
   9.97083480 15.64092198 24.15390320
   0.01265864 17.16213873 26.21337053
   2.75991781  0.00366456 25.89781599
   5.66568076  0.00227210 26.05868773
   8.46245083  0.05311251 26.11410291
  11.40225418  2.89264466 26.01646279
   2.88290088  3.03356204 26.04371104
   5.79893740  2.86432445 26.13245567
   8.55855786  2.96615349 25.98852819
  11.40106244  5.77779663 25.96118588
   2.77879083  5.81303409 26.05741167
   5.65350855  5.69656352 26.02692318
   8.48178880  5.78758377 25.99133358
  11.38890640  8.63244093 25.99595454
   2.87459530  8.58772354 25.94591878
   5.73516063  8.58330265 25.92932996
   8.57976850  8.66477899 26.05106583
   0.00800985 11.43772871 25.99061857
   2.86908900 11.43612615 26.07898408
   5.76395353 11.39159768 26.05498545
   8.73219469 11.45580675 26.08279737
  11.38919127 14.27839392 26.05948081
   2.82042578 14.28970025 26.04228700
   5.68480776 14.26008516 26.09138854
   8.63610394 14.33829598 25.99002395
   1.40774203  1.57960102 28.22158457
   4.29678343  1.54134139 28.08839573
   7.25173370  1.34304681 28.18192538
   9.94255520  1.55687602 28.06310183
   1.53805637  4.38772325 28.09852001
   4.26979291  4.27995086 28.13373396
   7.17547241  4.32333170 28.17979683
   9.88849305  4.48634601 28.18000977
   1.42770383  7.09597437 28.09690750
   4.27311533  7.27836957 28.03078466
   7.22128310  7.21929689 28.01282730
  10.05090770  7.21627514 28.10464862
   1.35947215  9.86790088 28.13305196
   4.27858941 10.05785953 28.05100152
   6.99790770 10.12052562 28.02643591
   9.89651785 10.12344222 28.22601550
   1.46470282 12.77855127 28.01164944
   4.27494589 12.91109104 28.05720769
   7.18551258 12.90104662 28.08514706
  10.04623311 13.00828994 28.17716967
   1.56710293 15.75863607 28.10639906
   4.21656503 15.83355273 28.15918867
   7.12449444 15.70927734 28.09465480
   9.98621970 15.74408783 28.10297665
   0.01213695  0.00267396 30.09615393
   2.79895746 17.14190649 30.17370267
   5.66174108  0.03199026 30.08109983
   8.49030906 17.10051842 30.08718007
  11.25956793  2.82846738 30.00657034
   2.71910237  2.95812995 30.13872840
   5.70623212  2.80350883 30.04002054
   8.40152941  2.94500220 30.19084516
  11.32275142  5.75085148 30.22034774
   2.78873103  5.79115124 30.16547031
   5.61691219  5.73368874 30.17828337
   8.48867727  5.78522740 30.21797943
  11.25049220  8.55059803 30.13823176
   2.69626438  8.63182360 30.19215270
   5.66149082  8.53382900 30.17629413
   8.37257679  8.57432724 30.09117154
  11.38070618 11.43740211 30.13064435
   2.73575803 11.41404868 29.98902799
   5.63119916 11.41336892 30.01989998
   8.35381762 11.41349929 30.15121746
  11.43365556 14.30567790 30.09240177
   2.77198060 14.21347585 30.09321306
   5.59641493 14.38580410 30.11732547
   8.49447443 14.31056415 30.07873956
   1.22544078  1.38705115 32.12642036
   4.13548034  1.45869342 32.10858192
   7.01907422  1.42047175 32.09899619
   9.97010108  1.47123307 32.09112935
   1.31851203  4.24042334 32.09835227
   4.14708110  4.22300021 32.11364978
   7.14603435  4.30700518 32.23855408
   9.83100755  4.38788846 32.20329833
   1.40282165  7.06166696 32.19854265
   4.19149988  7.21381244 32.16683334
   7.13173703  7.24108383 32.14822674
   9.97414194  7.19607978 32.24520482
   1.31624643  9.98202406 32.27523784
   4.27458519  9.95058002 32.06002305
   7.23729355 10.04098535 32.18866613
   9.97270904  9.93560860 32.21548252
   1.40163327 12.86136942 32.05607085
   4.26490429 12.88145314 32.00978001
   7.06613342 12.91452625 32.12971492
   9.87264132 12.78071613 32.07101046
   1.34481752 15.77283412 32.12018870
   4.21287543 15.73430659 32.11709580
   7.06644734 15.77826735 32.14033300
   9.99937396 15.80290767 31.96770077
  11.32972511 17.14483567 34.06139632
   2.82103126 17.06402843 34.11261682
   5.68310632 17.12637009 34.22927884
   8.63860381 17.04622836 33.97476457
  11.35738757  2.82613470 34.11981208
   2.80005000  2.73505820 34.22534050
   5.69553397  2.82713584 34.08259239
   8.51790804  2.77324701 34.14245630
  11.34682847  5.81285745 34.18817492
   2.90090702  5.79994170 34.09050443
   5.70869656  5.71094720 34.09576283
   8.58464080  5.71163772 34.17282193
  11.34504882  8.56865472 34.34563363
   2.77836389  8.57826548 34.28507952
   5.68640191  8.66601466 34.09184695
   8.45022290  8.53435346 34.11186575
  11.27000953 11.48179938 34.29609398
   2.90716393 11.33414114 34.06862046
   5.73625924 11.40881107 34.23132138
   8.50838527 11.42308958 34.22871390
   0.01376490 14.20528268 34.07171083
   2.91142236 14.18563156 34.14862479
   5.57258765 14.18763958 34.12093511
   8.57212210 14.32490258 34.19140150
   1.35649660  1.34032485 36.16399490
   4.18549491  1.26895412 36.16089917
   7.01594431  1.46042987 36.16519267
   9.92006980  1.45340767 36.02881543
   1.38867219  4.43064377 36.14749056
   4.19361627  4.19994900 36.20338387
   7.03364884  4.44475941 36.22997917
  10.00740991  4.25911297 36.10883092
   1.39401777  7.12965150 36.19750407
   4.30392402  7.01694424 36.16724595
   7.10070752  7.10667123 36.21810689
   9.91296552  7.16461772 36.19600658
   1.48175883 10.07746717 36.14011788
   4.24593801  9.85051204 36.35763193
   7.07993966  9.90225788 36.22710196
   9.88974893 10.07953105 36.30795013
   1.35033473 12.89718137 36.14147755
   4.25209518 12.73288904 36.26278534
   7.17838445 12.74166569 36.18203613
  10.03869368 12.82408060 36.21347874
   1.31358618 15.63867398 36.10477707
   4.18759110 15.54668311 36.15345950
   7.05473090 15.74019635 36.08431509
   9.87830811 15.75297812 36.11266478
  11.43649573 17.12684239 38.22879765
   2.79401550 17.08345544 38.21586835
   5.66293184 17.15201914 38.07645708
   8.43040832  0.05885855 38.17313797
  11.36139331  2.83007760 38.17529728
   2.81727307  2.72086047 38.03232642
   5.64811370  2.77528841 38.04320603
   8.52693521  2.79819314 37.99529504
  11.43833455  5.61898912 38.24264866
   2.71246701  5.69110632 38.34881456
   5.67580886  5.62084561 38.31188339
   8.60436416  5.66538594 38.13980850
   0.00458534  8.66241756 38.11656026
   2.70460325  8.51038894 38.35508193
   5.69775210  8.46683080 38.22668647
   8.63111014  8.54029329 38.24382479
   0.06706579 11.51042239 38.12731658
   2.76898540 11.50059150 38.17592081
   5.59573439 11.40706123 38.24368531
   8.52374357 11.47587811 38.28711428
  11.31140744 14.29331710 38.20497791
   2.86140945 14.20239335 38.34811280
   5.74199896 14.24117958 38.02911914
   8.57777923 14.30061324 38.29050502
 


--------------------------------------------------------------------------------------------------------


 k-point  1 :   0.0000 0.0000 0.0000  plane waves:   97433

 maximum and minimum number of plane-waves per node :     24361    24356

 maximum number of plane-waves:     97433
 maximum index in each direction: 
   IXMAX=   14   IYMAX=   21   IZMAX=   73
   IXMIN=  -14   IYMIN=  -21   IZMIN=  -73


 parallel 3D FFT for wavefunctions:
    minimum data exchange during FFTs selected (reduces bandwidth)
 parallel 3D FFT for charge:
    minimum data exchange during FFTs selected (reduces bandwidth)


 total amount of memory used by VASP MPI-rank0   168083. kBytes
=======================================================================

   base      :      30000. kBytes
   nonl-proj :      95132. kBytes
   fftplans  :      14387. kBytes
   grid      :      16056. kBytes
   one-center:        184. kBytes
   wavefun   :      12324. kBytes
 
     INWAV:  cpu time    2.4147: real time    3.3204
 Broyden mixing: mesh for mixing (old mesh)
   NGX = 29   NGY = 43   NGZ =147
  (NGX  = 96   NGY  =140   NGZ  =448)
  gives a total of 183309 points

 charge density for first step will be calculated from the start-wavefunctions


--------------------------------------------------------------------------------------------------------


 Maximum index for augmentation-charges          218 (set IRDMAX)


--------------------------------------------------------------------------------------------------------


 initial charge from wavefunction
 First call to EWALD:  gamma=   0.079
 Maximum number of real-space cells 5x 3x 1
 Maximum number of reciprocal cells 2x 2x 6

    FEWALD:  cpu time    0.0088: real time    0.0090


--------------------------------------- Iteration      1(   1)  ---------------------------------------


    POTLOK:  cpu time    0.0641: real time    0.0694
    SETDIJ:  cpu time    0.0058: real time    0.0058
     EDDAV:  cpu time   17.0466: real time   17.0400
       DOS:  cpu time    0.0014: real time    0.0014
    CHARGE:  cpu time    0.2797: real time    0.2790
    MIXING:  cpu time    0.0045: real time    0.0045
    --------------------------------------------
      LOOP:  cpu time   17.4021: real time   17.4002

 eigenvalue-minimisations  :  1120
 total energy-change (2. order) :-0.1022664E+04  (-0.3840426E+02)
 number of electron     719.9999998 magnetization 
 augmentation part      -11.7508625 magnetization 

 Broyden mixing:
  rms(total) = 0.22016E+01    rms(broyden)= 0.22016E+01
  rms(prec ) = 0.26167E+01
  weight for this iteration     100.00

 Free energy of the ion-electron system (eV)
  ---------------------------------------------------
  alpha Z        PSCENC =       -17.01491454
  Ewald energy   TEWEN  =    477211.25223489
  -Hartree energ DENC   =   -489710.74364297
  -exchange      EXHF   =         0.00000000
  -V(xc)+E(xc)   XCENC  =     -6101.85434878
  PAW double counting   =     42412.75244041   -34966.58263556
  entropy T*S    EENTRO =        -0.02829273
  eigenvalues    EBANDS =     -2760.01997029
  atomic energy  EATOM  =     12909.57480638
  Solvation  Ediel_sol  =         0.00000000
  ---------------------------------------------------
  free energy    TOTEN  =     -1022.66432320 eV

  energy without entropy =    -1022.63603047  energy(sigma->0) =    -1022.65489229


--------------------------------------------------------------------------------------------------------




--------------------------------------- Iteration      1(   2)  ---------------------------------------


    POTLOK:  cpu time    0.0640: real time    0.0648
    SETDIJ:  cpu time    0.0056: real time    0.0056
     EDDAV:  cpu time   21.2707: real time   21.2620
       DOS:  cpu time    0.0007: real time    0.0006
    CHARGE:  cpu time    0.2800: real time    0.2793
    MIXING:  cpu time    0.0050: real time    0.0049
    --------------------------------------------
      LOOP:  cpu time   21.6259: real time   21.6172

 eigenvalue-minimisations  :  1440
 total energy-change (2. order) :-0.2276686E+03  (-0.3148305E+02)
 number of electron     720.0000003 magnetization 
 augmentation part      -11.8586900 magnetization 

 Broyden mixing:
  rms(total) = 0.39642E+01    rms(broyden)= 0.39642E+01
  rms(prec ) = 0.10618E+02
  weight for this iteration     100.00

 eigenvalues of (default mixing * dielectric matrix)
  average eigenvalue GAMMA=   0.3682
  0.3682

 Free energy of the ion-electron system (eV)
  ---------------------------------------------------
  alpha Z        PSCENC =       -17.01491454
  Ewald energy   TEWEN  =    477211.25223489
  -Hartree energ DENC   =   -489060.28996400
  -exchange      EXHF   =         0.00000000
  -V(xc)+E(xc)   XCENC  =     -6102.15847627
  PAW double counting   =     42756.24029016   -35310.01809341
  entropy T*S    EENTRO =        -0.02251005
  eigenvalues    EBANDS =     -3637.89633696
  atomic energy  EATOM  =     12909.57480638
  Solvation  Ediel_sol  =         0.00000000
  ---------------------------------------------------
  free energy    TOTEN  =     -1250.33296380 eV

  energy without entropy =    -1250.31045376  energy(sigma->0) =    -1250.32546045


--------------------------------------------------------------------------------------------------------




--------------------------------------- Iteration      1(   3)  ---------------------------------------


    POTLOK:  cpu time    0.0641: real time    0.0651
    SETDIJ:  cpu time    0.0054: real time    0.0054
     EDDAV:  cpu time   20.6743: real time   20.6652
       DOS:  cpu time    0.0008: real time    0.0008
    CHARGE:  cpu time    0.2792: real time    0.2784
    MIXING:  cpu time    0.0049: real time    0.0049
    --------------------------------------------
      LOOP:  cpu time   21.0286: real time   21.0198

 eigenvalue-minimisations  :  1392
 total energy-change (2. order) : 0.1768881E+03  (-0.7799915E+02)
 number of electron     719.9999999 magnetization 
 augmentation part      -12.1259344 magnetization 

 Broyden mixing:
  rms(total) = 0.27730E+01    rms(broyden)= 0.27730E+01
  rms(prec ) = 0.69878E+01
  weight for this iteration     100.00

 eigenvalues of (default mixing * dielectric matrix)
  average eigenvalue GAMMA=   0.4019
  0.7333  0.0705

 Free energy of the ion-electron system (eV)
  ---------------------------------------------------
  alpha Z        PSCENC =       -17.01491454
  Ewald energy   TEWEN  =    477211.25223489
  -Hartree energ DENC   =   -489081.56390205
  -exchange      EXHF   =         0.00000000
  -V(xc)+E(xc)   XCENC  =     -6102.25329784
  PAW double counting   =     42639.38242893   -35193.13157607
  entropy T*S    EENTRO =        -0.12529234
  eigenvalues    EBANDS =     -3439.56531588
  atomic energy  EATOM  =     12909.57480638
  Solvation  Ediel_sol  =         0.00000000
  ---------------------------------------------------
  free energy    TOTEN  =     -1073.44482852 eV

  energy without entropy =    -1073.31953618  energy(sigma->0) =    -1073.40306441


--------------------------------------------------------------------------------------------------------




--------------------------------------- Iteration      1(   4)  ---------------------------------------


    POTLOK:  cpu time    0.0627: real time    0.0633
    SETDIJ:  cpu time    0.0055: real time    0.0055
     EDDAV:  cpu time   20.2368: real time   20.2285
       DOS:  cpu time    0.0007: real time    0.0007
    CHARGE:  cpu time    0.2825: real time    0.2815
[...]
     11.37094      2.79814     22.07003        -0.005745      0.115313     -0.081420
      2.84165      2.91752     21.93023        -0.194280     -0.262719      0.249480
      5.64434      2.86552     22.06276        -0.135382      0.108870     -0.017476
      8.56486      2.87810     22.04195        -0.076839     -0.161673     -0.056939
     11.44938      5.63905     22.12290        -0.107155      0.140862     -0.283939
      2.84879      5.80468     21.90753        -0.286266     -0.240789      0.281911
      5.70853      5.84875     22.13416        -0.213989     -0.352919     -0.340077
      8.50002      5.75447     22.05953         0.094961      0.047067     -0.203759
     11.40728      8.43849     22.08386        -0.045725      0.392333     -0.512047
      2.89784      8.58472     21.96727        -0.645390      0.056424      0.238580
      5.56083      8.61571     21.90128         0.500237      0.044562      0.328462
      8.52732      8.62976     22.00177        -0.060531     -0.099578     -0.114154
     11.35191     11.37984     22.03491         0.208123     -0.008570     -0.169110
      2.80747     11.41412     22.07577        -0.225513      0.025947      0.283274
      5.62432     11.38309     21.93641        -0.058269      0.158765      0.404942
      8.48940     11.48668     22.01230        -0.028228     -0.106396      0.115990
     11.33091     14.27797     22.09896        -0.186617      0.040608     -0.332969
      2.79196     14.29663     22.05209         0.092938     -0.229427      0.052051
      5.62793     14.19712     22.01970        -0.091401      0.016418      0.133027
      8.38952     14.35109     21.95896         0.450608     -0.086425      0.487199
      1.27582      1.42184     24.02588         0.423627      0.022888      0.222519
      4.19037      1.37925     24.02037         0.057341      0.431876      0.116952
      7.01215      1.51305     24.00248         0.273486     -0.261139      0.197740
      9.96277      1.41198     24.15786        -0.147065     -0.203299     -0.205464
      1.39550      4.21742     24.00398         0.087099      0.138372      0.005870
      4.24682      4.37649     23.97534        -0.077161     -0.318849      0.098776
      7.13124      4.33645     23.96422        -0.369812     -0.028469      0.252246
      9.86144      4.29034     24.00643         0.540859      0.097084      0.092602
      1.40938      7.07402     23.97447        -0.057805      0.138027      0.160231
      4.12705      7.14287     24.03641         0.523403      0.051012     -0.139984
      7.05917      7.24279     23.97057         0.180769     -0.029741      0.216040
      9.97136      7.14685     23.97493        -0.231899     -0.030193      0.252527
      1.32065      9.88105     24.01488         0.389563      0.442938     -0.138062
      4.28547      9.98305     24.03897        -0.144672      0.202274     -0.225558
      7.10127     10.01214     23.94239         0.045921      0.112826      0.118182
      9.97549      9.97558     24.00474        -0.120588     -0.076066     -0.047727
      1.34972     12.89844     24.03075         0.229274     -0.367657     -0.023839
      4.25396     12.81962     24.13791         0.016063     -0.018829     -0.441963
      7.10772     12.84402     24.06465         0.065497      0.053968     -0.038640
      9.99099     12.73647     23.95614        -0.246289      0.476515      0.204425
      1.39830     15.66127     23.95094        -0.022358      0.278189      0.419629
      4.34923     15.66602     24.06211        -0.358143      0.020801      0.032233
      7.08003     15.76008     24.01802         0.222464     -0.084335      0.158982
      9.97083     15.64092     24.15390         0.054069      0.480245     -0.497467
      0.01266     17.16214     26.21337        -0.150719      0.086419     -0.220866
      2.75992      0.00366     25.89782         0.149116      0.002855      0.405217
      5.66568      0.00227     26.05869        -0.049804      0.031984      0.086093
      8.46245      0.05311     26.11410         0.227812     -0.177963     -0.265233
     11.40225      2.89264     26.01646         0.106742      0.175615      0.321107
      2.88290      3.03356     26.04371        -0.030110     -0.514353     -0.044667
      5.79894      2.86432     26.13246        -0.223132      0.064962     -0.090615
      8.55856      2.96615     25.98853        -0.065497     -0.164852      0.396596
     11.40106      5.77780     25.96119        -0.142826     -0.195032      0.269137
      2.77879      5.81303     26.05741         0.158143     -0.154542     -0.109327
      5.65351      5.69656     26.02692         0.068383      0.124157      0.090391
      8.48179      5.78758     25.99133         0.126034      0.070535      0.122106
     11.38891      8.63244     25.99595         0.101572     -0.227011      0.344545
      2.87460      8.58772     25.94592        -0.311467      0.172406      0.448171
      5.73516      8.58330     25.92933        -0.028453     -0.120638      0.328630
      8.57977      8.66478     26.05107        -0.036452     -0.120799     -0.019372
      0.00801     11.43773     25.99062         0.132660     -0.080259      0.323279
      2.86909     11.43613     26.07898        -0.150564     -0.185713     -0.188303
      5.76395     11.39160     26.05499        -0.067549      0.248795     -0.255406
      8.73219     11.45581     26.08280        -0.463890      0.124303      0.027088
     11.38919     14.27839     26.05948         0.325788      0.071412      0.187828
      2.82043     14.28970     26.04229         0.018835      0.133654      0.070677
      5.68481     14.26009     26.09139         0.156397      0.215578      0.008995
      8.63610     14.33830     25.99002        -0.545133     -0.243361      0.319893
      1.40774      1.57960     28.22158         0.084428     -0.339686     -0.545853
      4.29678      1.54134     28.08840        -0.273715     -0.392470     -0.020472
      7.25173      1.34305     28.18193        -0.482461      0.342713     -0.281102
      9.94256      1.55688     28.06310         0.124232     -0.319942      0.056006
      1.53806      4.38772     28.09852        -0.704186     -0.177452      0.024025
      4.26979      4.27995     28.13373         0.271786      0.366365      0.036748
      7.17547      4.32333     28.17980        -0.333951      0.165338     -0.263505
      9.88849      4.48635     28.18001         0.346639     -0.298948     -0.257179
      1.42770      7.09597     28.09691        -0.179396      0.334084      0.091669
      4.27312      7.27837     28.03078         0.111224     -0.227853      0.289346
      7.22128      7.21930     28.01283        -0.414770     -0.110030      0.196482
     10.05091      7.21628     28.10465        -0.153250      0.050325     -0.121133
      1.35947      9.86790     28.13305        -0.195946      0.235644     -0.236567
      4.27859     10.05786     28.05100        -0.262285     -0.242815      0.075654
      6.99791     10.12053     28.02644         0.497623     -0.471812      0.197601
      9.89652     10.12344     28.22602         0.141775     -0.134340     -0.226016
      1.46470     12.77855     28.01165        -0.372520      0.247509      0.133493
      4.27495     12.91109     28.05721         0.033699      0.014453      0.174899
      7.18551     12.90105     28.08515        -0.114653      0.040007     -0.042425
     10.04623     13.00829     28.17717        -0.119949     -0.539270     -0.229112
      1.56710     15.75864     28.10640        -0.650572     -0.053239     -0.060887
      4.21657     15.83355     28.15919         0.283870     -0.140256     -0.279023
      7.12449     15.70928     28.09465        -0.127543     -0.042057     -0.086059
      9.98622     15.74409     28.10298         0.097399      0.241590      0.054921
      0.01214      0.00267     30.09615        -0.305204     -0.030066     -0.406292
      2.79896     17.14191     30.17370         0.079309      0.302915     -0.223530
      5.66174      0.03199     30.08110        -0.095061     -0.088186      0.036170
      8.49031     17.10052     30.08718         0.309258      0.282748      0.142650
     11.25957      2.82847     30.00657         0.131579      0.495284      0.375235
      2.71910      2.95813     30.13873         0.209017     -0.369082     -0.040447
      5.70623      2.80351     30.04002        -0.274312      0.344905      0.247866
      8.40153      2.94500     30.19085         0.568364     -0.237803     -0.134016
     11.32275      5.75085     30.22035         0.136488     -0.154476     -0.288410
      2.78873      5.79115     30.16547         0.135281     -0.005162     -0.247082
      5.61691      5.73369     30.17828         0.073652     -0.079437     -0.226275
      8.48868      5.78523     30.21798        -0.044691      0.085398     -0.315389
     11.25049      8.55060     30.13823         0.337003      0.178360      0.096669
      2.69626      8.63182     30.19215         0.065575     -0.154560     -0.204280
      5.66149      8.53383     30.17629        -0.129978      0.126679     -0.451906
      8.37258      8.57433     30.09117         0.451066      0.153269     -0.121422
     11.38071     11.43740     30.13064        -0.040821     -0.080365     -0.073241
      2.73576     11.41405     29.98903         0.212325     -0.092664      0.261712
      5.63120     11.41337     30.01990        -0.091897      0.152147      0.287878
      8.35382     11.41350     30.15122         0.505536      0.140174     -0.231605
     11.43366     14.30568     30.09240         0.065669      0.055909     -0.075779
      2.77198     14.21348     30.09321         0.102920      0.241979     -0.117400
      5.59641     14.38580     30.11733         0.259258     -0.181127     -0.244811
      8.49447     14.31056     30.07874        -0.005419     -0.060340      0.100799
      1.22544      1.38705     32.12642         0.508913      0.206589     -0.037891
      4.13548      1.45869     32.10858         0.168210     -0.186604      0.042708
      7.01907      1.42047     32.09900         0.123211     -0.160646      0.081233
      9.97010      1.47123     32.09113        -0.362299      0.007290     -0.240713
      1.31851      4.24042     32.09835        -0.162001      0.088281      0.288968
      4.14708      4.22300     32.11365         0.321424      0.228948      0.130833
      7.14603      4.30701     32.23855        -0.535663      0.089113     -0.271622
      9.83101      4.38789     32.20330         0.658755     -0.378578     -0.203273
      1.40282      7.06167     32.19854        -0.303744      0.429860      0.007368
      4.19150      7.21381     32.16683         0.252189     -0.143211      0.003881
      7.13174      7.24108     32.14823        -0.271835     -0.386913      0.105639
      9.97414      7.19608     32.24520         0.035970     -0.027519     -0.232683
      1.31625      9.98202     32.27524         0.016223     -0.020332     -0.186478
      4.27459      9.95058     32.06002        -0.034000      0.409516      0.153736
      7.23729     10.04099     32.18867        -0.625465      0.118319     -0.143344
      9.97271      9.93561     32.21548         0.154299      0.280584     -0.108406
      1.40163     12.86137     32.05607        -0.063251     -0.187185      0.328163
      4.26490     12.88145     32.00978        -0.157608     -0.309525      0.221860
      7.06613     12.91453     32.12971         0.027251     -0.035897      0.069757
      9.87264     12.78072     32.07101         0.182330      0.247823      0.239346
      1.34482     15.77283     32.12019         0.151532     -0.313079      0.042258
      4.21288     15.73431     32.11710         0.071327      0.025169      0.059761
      7.06645     15.77827     32.14033        -0.075716     -0.260494     -0.054510
      9.99937     15.80291     31.96770        -0.075516     -0.463982      0.245316
     11.32973     17.14484     34.06140         0.388197     -0.145950      0.336408
      2.82103     17.06403     34.11262        -0.120330      0.170519      0.106223
      5.68311     17.12637     34.22928        -0.157301      0.077779     -0.406523
      8.63860     17.04623     33.97476        -0.521828      0.500663      0.377321
     11.35739      2.82613     34.11981         0.316285      0.222829      0.126709
      2.80005      2.73506     34.22534        -0.161812      0.360882     -0.110014
      5.69553      2.82714     34.08259        -0.205966      0.076506      0.352326
      8.51791      2.77325     34.14246        -0.198481      0.150256      0.069371
     11.34683      5.81286     34.18817         0.366276     -0.365236     -0.029784
      2.90091      5.79994     34.09050        -0.256826     -0.540620      0.349082
      5.70870      5.71095     34.09576        -0.133424      0.109486      0.107966
      8.58464      5.71164     34.17282        -0.385518      0.075054      0.283241
     11.34505      8.56865     34.34563         0.082260      0.311005     -0.277675
      2.77836      8.57827     34.28508         0.213517     -0.086593     -0.240887
      5.68640      8.66601     34.09185        -0.216532     -0.367783      0.355896
      8.45022      8.53435     34.11187         0.298953      0.072295      0.585341
     11.27001     11.48180     34.29609         0.425862     -0.434017     -0.494457
      2.90716     11.33414     34.06862        -0.044475      0.339782      0.207590
      5.73626     11.40881     34.23132        -0.341069     -0.040444     -0.127783
      8.50839     11.42309     34.22871         0.183236      0.033927     -0.052367
      0.01376     14.20528     34.07171        -0.298034      0.298956     -0.055027
      2.91142     14.18563     34.14862        -0.531925     -0.049744     -0.114785
      5.57259     14.18764     34.12094         0.573918      0.218862      0.161729
      8.57212     14.32490     34.19140        -0.090551     -0.381757     -0.325247
      1.35650      1.34032     36.16399        -0.273625     -0.025859     -0.315558
      4.18549      1.26895     36.16090         0.069621      0.096832     -0.361763
      7.01594      1.46043     36.16519         0.266247     -0.175209     -0.647872
      9.92007      1.45341     36.02882         0.156082     -0.406743      0.282042
      1.38867      4.43064     36.14749         0.032567     -0.602341     -0.289636
      4.19362      4.19995     36.20338         0.112920      0.247085     -0.421653
      7.03365      4.44476     36.22998         0.091666     -0.638036     -0.512871
     10.00741      4.25911     36.10883        -0.077115      0.111419      0.008501
      1.39402      7.12965     36.19750         0.061374      0.149178      0.081738
      4.30392      7.01694     36.16725        -0.155356      0.156233      0.092171
      7.10071      7.10667     36.21811        -0.001312      0.248333     -0.273942
      9.91297      7.16462     36.19601         0.174089     -0.043773      0.017267
      1.48176     10.07747     36.14012        -0.205200     -0.058566      0.053149
      4.24594      9.85051     36.35763        -0.057616      0.143271     -0.495777
      7.07994      9.90226     36.22710         0.092623      0.149304     -0.034259
      9.88975     10.07953     36.30795         0.104676     -0.213513     -0.351560
      1.35033     12.89718     36.14148         0.455658     -0.052062     -0.145677
      4.25210     12.73289     36.26279        -0.087645      0.073286     -0.586164
      7.17838     12.74167     36.18204        -0.065639      0.316502     -0.014141
     10.03869     12.82408     36.21348        -0.576469      0.412857     -0.053119
      1.31359     15.63867     36.10478         0.074677      0.222865      0.094675
      4.18759     15.54668     36.15346        -0.033413      0.302259      0.071286
      7.05473     15.74020     36.08432         0.206866     -0.168916      0.023667
      9.87831     15.75298     36.11266         0.255752      0.014079      0.257254
     11.43650     17.12684     38.22880        -0.202953      0.023406     -0.337325
      2.79402     17.08346     38.21587         0.014598     -0.191740     -0.214712
      5.66293     17.15202     38.07646        -0.138049     -0.254752      0.151670
      8.43041      0.05886     38.17314         0.286450     -0.311516     -0.237363
     11.36139      2.83008     38.17530         0.084601     -0.127058     -0.239988
      2.81727      2.72086     38.03233        -0.186289      0.279013      0.245007
      5.64811      2.77529     38.04321        -0.043728      0.211561      0.309153
      8.52694      2.79819     37.99530         0.008984      0.265577      0.172981
     11.43833      5.61899     38.24265        -0.235101      0.208056     -0.185670
      2.71247      5.69111     38.34881         0.304887     -0.049975     -0.344621
      5.67581      5.62085     38.31188        -0.148167      0.112831     -0.130090
      8.60436      5.66539     38.13981        -0.012658      0.018805      0.151231
      0.00459      8.66242     38.11656        -0.205040     -0.142189      0.010068
      2.70460      8.51039     38.35508         0.237876      0.027488     -0.298611
      5.69775      8.46683     38.22669         0.033822      0.006424      0.052715
      8.63111      8.54029     38.24382        -0.187701      0.043338      0.041304
      0.06707     11.51042     38.12732        -0.237527     -0.261097      0.166165
      2.76899     11.50059     38.17592         0.095115     -0.395497      0.117566
      5.59573     11.40706     38.24369         0.268597     -0.147282     -0.021839
      8.52374     11.47588     38.28711        -0.104731     -0.122475     -0.107258
     11.31141     14.29332     38.20498         0.282939      0.186956     -0.193500
      2.86141     14.20239     38.34811        -0.115612      0.321697     -0.416661
      5.74200     14.24118     38.02912         0.082176      0.063360      0.203596
      8.57778     14.30061     38.29051        -0.254368      0.117406     -0.384755
 -----------------------------------------------------------------------------------
    total drift:                                0.000128     -0.000234     -0.001756


--------------------------------------------------------------------------------------------------------



  FREE ENERGIE OF THE ION-ELECTRON SYSTEM (eV)
  ---------------------------------------------------
  free  energy   TOTEN  =      -968.53337218 eV

  energy  without entropy=     -968.68470359  energy(sigma->0) =     -968.58381598
 


--------------------------------------------------------------------------------------------------------


    POTLOK:  cpu time    0.0710: real time    0.0710


--------------------------------------------------------------------------------------------------------


 writing wavefunctions
     LOOP+:  cpu time  517.1456: real time  521.0636
    4ORBIT:  cpu time    0.0000: real time    0.0000

 total amount of memory used by VASP MPI-rank0   168083. kBytes
=======================================================================

   base      :      30000. kBytes
   nonl-proj :      95132. kBytes
   fftplans  :      14387. kBytes
   grid      :      16056. kBytes
   one-center:        184. kBytes
   wavefun   :      12324. kBytes
 
  
  
 General timing and accounting informations for this job:
 ========================================================
  
                  Total CPU time used (sec):      530.801
                            User time (sec):      524.398
                          System time (sec):        6.404
                         Elapsed time (sec):      537.423
  
                   Maximum memory used (kb):      274976.
                   Average memory used (kb):           0.
  
                          Minor page faults:        99925
                          Major page faults:            0
                 Voluntary context switches:        10000
