<?xml version="1.0" encoding="ISO-8859-1"?>
<modeling>
 <generator>
  <i name="program" type="string">vasp </i>
  <i name="version" type="string">5.4.4.18Apr17-6-g9f103f2a35  </i>
  <i name="subversion" type="string">(build May 07 2018 22:18:08) complex            parallel </i>
  <i name="platform" type="string">LinuxIFC </i>
  <i name="date" type="string">2020 08 16 </i>
  <i name="time" type="string">13:16:23 </i>
 </generator>
 <incar>
  <i type="string" name="PREC">normal</i>
  <i type="int" name="NSIM">     4</i>
  <v type="int" name="KPOINT_BSE">    -1     0     0     0</v>
 </incar>
 <structure name="primitive_cell" >
  <crystal>
   <varray name="basis" >
    <v>      11.45512986       0.00000000       0.00000000 </v>
    <v>       0.00000000      17.18269478       0.00000000 </v>
    <v>       0.00000000       0.00000000      58.22500000 </v>
   </varray>
   <i name="volume">  11460.42675000 </i>
   <varray name="rec_basis" >
    <v>       0.08729713       0.00000000       0.00000000 </v>
    <v>       0.00000000       0.05819809       0.00000000 </v>
    <v>       0.00000000       0.00000000       0.01717475 </v>
   </varray>
  </crystal>
  <varray name="positions" >
   <v>       0.11258043       0.07282645       0.34531242 </v>
   <v>      -0.00088423      -0.00040114       0.37998055 </v>
   <v>       0.11092473      -0.09030043       0.34286397 </v>
   <v>      -0.13189398       0.08487685       0.34120106 </v>
   <v>       0.25036297      -0.00172936       0.37898436 </v>
   <v>      -0.00734989       0.16284631       0.37904736 </v>
   <v>       0.36130483       0.08094457       0.33988200 </v>
   <v>       0.24806817       0.16979414       0.37664627 </v>
   <v>       0.10970015       0.25162356       0.34319530 </v>
   <v>      -0.14266547      -0.07844824       0.34271055 </v>
   <v>       0.11137543       0.08274823       0.41263848 </v>
   <v>       0.36661158      -0.09067965       0.34442914 </v>
   <v>      -0.12834632       0.25117588       0.34540470 </v>
   <v>       0.37264916       0.25191258       0.34490803 </v>
   <v>       0.12206777      -0.08854376       0.41135152 </v>
   <v>      -0.25271487       0.00187911       0.37970050 </v>
   <v>       0.24372971      -0.16796349       0.37873924 </v>
   <v>      -0.01084431      -0.16904957       0.37954425 </v>
   <v>       0.36580711       0.08027000       0.41254386 </v>
   <v>      -0.25231244       0.16749984       0.37856505 </v>
   <v>       0.12182322       0.24544600       0.41226247 </v>
   <v>      -0.13027890       0.08217445       0.41490531 </v>
   <v>       0.49155437      -0.00106034       0.37869823 </v>
   <v>      -0.00050157       0.32818191       0.37995539 </v>
   <v>       0.49273475       0.16676804       0.37892244 </v>
   <v>       0.24869101       0.33782104       0.37625645 </v>
   <v>       0.11337519      -0.25013126       0.34350708 </v>
   <v>      -0.12957470      -0.08972823       0.41483732 </v>
   <v>      -0.38494945       0.08159473       0.34651658 </v>
   <v>       0.37967551      -0.08826785       0.41326081 </v>
   <v>      -0.13912475       0.24968951       0.41230450 </v>
   <v>       0.37073543       0.25470316       0.41177059 </v>
   <v>       0.11682457       0.42224058       0.34199661 </v>
   <v>       0.24093291       0.00021327       0.44478860 </v>
   <v>      -0.14344139      -0.24679697       0.34242763 </v>
   <v>      -0.26761855      -0.16479423       0.37713966 </v>
   <v>      -0.00461589       0.16834639       0.44682633 </v>
   <v>      -0.38435662      -0.08745233       0.34321676 </v>
   <v>       0.49130180      -0.17375483       0.37818292 </v>
   <v>       0.00110506      -0.00119632       0.45020817 </v>
   <v>       0.35716515      -0.26035487       0.34338774 </v>
   <v>       0.25166898       0.17654751       0.44729431 </v>
   <v>      -0.38670977       0.24965830       0.34310627 </v>
   <v>      -0.25797277       0.33489938       0.37886697 </v>
   <v>      -0.13968921       0.41448195       0.34271201 </v>
   <v>       0.36977238       0.41672669       0.34256279 </v>
   <v>       0.49833814       0.34038581       0.38014879 </v>
   <v>       0.11782645      -0.24933527       0.41272224 </v>
   <v>      -0.38785984       0.08805664       0.41223674 </v>
   <v>       0.12303494       0.41169423       0.41175562 </v>
   <v>      -0.38193358      -0.08279330       0.41250365 </v>
   <v>      -0.00575625      -0.16902476       0.44756515 </v>
   <v>       0.24621509      -0.16836675       0.44726985 </v>
   <v>      -0.12781486      -0.25876170       0.41144072 </v>
   <v>      -0.25286243       0.17262446       0.44634656 </v>
   <v>      -0.00901084      -0.33771516       0.37844413 </v>
   <v>       0.24508450      -0.33572024       0.37914597 </v>
   <v>      -0.26125230       0.00309105       0.44850327 </v>
   <v>      -0.37746283       0.25237292       0.41157958 </v>
   <v>       0.49459769       0.00013223       0.44755153 </v>
   <v>       0.37135846      -0.25392284       0.41456273 </v>
   <v>      -0.00471993       0.33625672       0.44587696 </v>
   <v>      -0.00417717       0.49110390       0.37928486 </v>
   <v>      -0.12952866       0.41593279       0.41176356 </v>
   <v>       0.36027953       0.41570158       0.41281945 </v>
   <v>       0.24258047       0.33830747       0.44752961 </v>
   <v>      -0.49376939       0.16669821       0.44881847 </v>
   <v>       0.25297282       0.49961414       0.37728236 </v>
   <v>      -0.38183834      -0.25372040       0.34352918 </v>
   <v>       0.12289184       0.09192976       0.48469875 </v>
   <v>      -0.38706998       0.41240164       0.34300591 </v>
   <v>      -0.24609288      -0.16553857       0.44637224 </v>
   <v>       0.11426852      -0.41163182       0.34213121 </v>
   <v>      -0.25890014      -0.33149709       0.37805589 </v>
   <v>       0.13680359      -0.08287750       0.48272046 </v>
   <v>      -0.13204343       0.09060721       0.48197685 </v>
   <v>       0.49098718      -0.33752572       0.37675249 </v>
   <v>       0.49626742      -0.17009030       0.44811316 </v>
   <v>       0.37509688       0.08970312       0.48241126 </v>
   <v>      -0.25956415       0.33682632       0.44639474 </v>
   <v>       0.13426791       0.25535711       0.48258514 </v>
   <v>       0.49353509       0.33152911       0.44700598 </v>
   <v>       0.48544433      -0.49858203       0.37614909 </v>
   <v>      -0.25558907      -0.49776460       0.37787505 </v>
   <v>      -0.14235716      -0.41080898       0.34336850 </v>
   <v>      -0.37951638      -0.25250240       0.41330437 </v>
   <v>      -0.12823165      -0.08372418       0.48266169 </v>
   <v>       0.35312878      -0.41893187       0.34189873 </v>
   <v>       0.36809404      -0.07851749       0.48362711 </v>
   <v>       0.37274068       0.24908496       0.48318993 </v>
   <v>      -0.38375460       0.42151635       0.41168860 </v>
   <v>      -0.13676290       0.26109676       0.48398471 </v>
   <v>       0.00069924      -0.33434605       0.44638246 </v>
   <v>       0.25046325      -0.33443931       0.44790011 </v>
   <v>       0.11528877      -0.42494175       0.41244958 </v>
   <v>       0.25094393       0.49978910       0.44561475 </v>
   <v>      -0.00578112      -0.49760843       0.44647410 </v>
   <v>      -0.12916805      -0.41944029       0.41227549 </v>
   <v>       0.12786436      -0.25631274       0.48109316 </v>
   <v>      -0.36694443       0.07816276       0.48401761 </v>
   <v>       0.37410966      -0.41900544       0.41286344 </v>
   <v>       0.12463445       0.41297215       0.48255745 </v>
   <v>      -0.23770443      -0.33329394       0.44796561 </v>
   <v>      -0.12299265      -0.24294238       0.48393593 </v>
   <v>      -0.39299126      -0.41498658       0.34154811 </v>
   <v>       0.37319052      -0.24859917       0.48187562 </v>
   <v>      -0.01707200       0.16461140      -0.48464456 </v>
   <v>      -0.37805206      -0.08575008       0.48251876 </v>
   <v>       0.00105952       0.00015562      -0.48310599 </v>
   <v>      -0.49682338      -0.33703078       0.44748794 </v>
   <v>       0.24434096      -0.00237380      -0.48177411 </v>
   <v>       0.23736984       0.17215751      -0.48237478 </v>
   <v>      -0.37360183       0.25160964       0.48398105 </v>
   <v>      -0.12258457       0.41997342       0.48269040 </v>
   <v>      -0.49933692       0.49953181       0.44532984 </v>
   <v>      -0.25101080      -0.49572642       0.44742062 </v>
   <v>       0.37303072       0.42358720       0.48142181 </v>
   <v>      -0.38007954      -0.41731242       0.41120460 </v>
   <v>      -0.00187464      -0.16743688      -0.48317043 </v>
   <v>      -0.25882036      -0.00478251      -0.48326011 </v>
   <v>       0.24198596      -0.17280287      -0.48315650 </v>
   <v>       0.49425377       0.00186177      -0.48336454 </v>
   <v>       0.49813771       0.16315886      -0.48407006 </v>
   <v>      -0.26657057       0.17139350      -0.48147969 </v>
   <v>       0.24344823       0.33703394      -0.48191549 </v>
   <v>      -0.01155626       0.33468857      -0.48097299 </v>
   <v>      -0.37272535      -0.24918374       0.48235547 </v>
   <v>      -0.36960269       0.42014928       0.48111339 </v>
   <v>      -0.25845673      -0.16715251      -0.48340507 </v>
   <v>       0.48855098      -0.16277369      -0.48274237 </v>
   <v>       0.11867802      -0.42570703       0.48317822 </v>
   <v>       0.49034033       0.33368973      -0.48169543 </v>
   <v>      -0.25896281       0.33668918      -0.48101366 </v>
   <v>       0.37350859      -0.41465180       0.48176903 </v>
   <v>      -0.13606236      -0.41083501       0.48477485 </v>
   <v>       0.10697747       0.08072373      -0.44823666 </v>
   <v>       0.23882383      -0.33572418      -0.48494585 </v>
   <v>      -0.00649697      -0.33436505      -0.48251362 </v>
   <v>      -0.12963876       0.08562295      -0.44884278 </v>
   <v>       0.11739871      -0.08205120      -0.44834369 </v>
   <v>       0.36101558       0.08489317      -0.44854303 </v>
   <v>       0.11510232       0.24678454      -0.44871872 </v>
   <v>      -0.12708332      -0.08030097      -0.45096263 </v>
   <v>      -0.01786428       0.49762846      -0.48238331 </v>
   <v>       0.23537615      -0.49764436      -0.48145723 </v>
   <v>       0.36777195      -0.08429342      -0.44839681 </v>
   <v>       0.36202829       0.24577054      -0.44845599 </v>
   <v>      -0.38910272      -0.41100475       0.48134712 </v>
   <v>      -0.14178122       0.25536672      -0.44691630 </v>
   <v>       0.49158754      -0.33576374      -0.48441563 </v>
   <v>      -0.27073567      -0.33575615      -0.48216028 </v>
   <v>      -0.26909805       0.49900946      -0.48319156 </v>
   <v>       0.49423192       0.49665254      -0.48172960 </v>
   <v>       0.12235857      -0.25149288      -0.44944490 </v>
   <v>      -0.38725494       0.08266874      -0.44870767 </v>
   <v>       0.12246231       0.41097552      -0.44699798 </v>
   <v>       0.37231392      -0.25032404      -0.45023993 </v>
   <v>      -0.13814671      -0.25618675      -0.44918831 </v>
   <v>      -0.38311940      -0.08173499      -0.44799772 </v>
   <v>      -0.37617169       0.25065947      -0.44631079 </v>
   <v>       0.36590592       0.41983010      -0.44754258 </v>
   <v>      -0.12928600       0.41879809      -0.44619657 </v>
   <v>      -0.01094747      -0.00220333      -0.41500393 </v>
   <v>       0.24626794      -0.00690615      -0.41412423 </v>
   <v>      -0.00853262       0.16447564      -0.41400065 </v>
   <v>       0.24443634       0.15917516      -0.41218823 </v>
   <v>      -0.38314681      -0.24839925      -0.44818008 </v>
   <v>      -0.24587465      -0.00794208      -0.41649181 </v>
   <v>      -0.37741980       0.42141724      -0.44786214 </v>
   <v>       0.00120164      -0.17327969      -0.41482678 </v>
   <v>      -0.25641104       0.16139768      -0.41361174 </v>
   <v>       0.49720379       0.16453390      -0.41463989 </v>
   <v>       0.25415883      -0.17442335      -0.41350580 </v>
   <v>       0.25324087       0.33754552      -0.41450400 </v>
   <v>       0.11490454      -0.41906528      -0.44568076 </v>
   <v>       0.49611889      -0.00327799      -0.41212059 </v>
   <v>      -0.00945440       0.33829720      -0.41282654 </v>
   <v>       0.37315903      -0.42089526      -0.44937702 </v>
   <v>      -0.12941109      -0.42176657      -0.44670704 </v>
   <v>      -0.25167831      -0.16631805      -0.41277112 </v>
   <v>       0.48647093      -0.17430649      -0.41398136 </v>
   <v>      -0.25058547       0.33240640      -0.41309022 </v>
   <v>       0.49835285       0.33236621      -0.41441369 </v>
   <v>      -0.36820502      -0.41563384      -0.44716761 </v>
   <v>       0.25378708      -0.34037465      -0.41487985 </v>
   <v>      -0.01616047      -0.33178122      -0.41097305 </v>
   <v>       0.24254320       0.49923866      -0.41116222 </v>
   <v>       0.11841826       0.07800435      -0.37889232 </v>
   <v>      -0.00960976       0.49867933      -0.41012222 </v>
   <v>      -0.13400634       0.08458555      -0.38121399 </v>
   <v>       0.11467231      -0.08985906      -0.37990937 </v>
   <v>       0.36538171       0.07385070      -0.37894548 </v>
   <v>      -0.25724236      -0.33519802      -0.41213029 </v>
   <v>       0.12122710       0.25785500      -0.37917577 </v>
   <v>      -0.26231976       0.49668306      -0.41413713 </v>
   <v>      -0.49924101      -0.33602900      -0.41208551 </v>
   <v>       0.49640659      -0.49565451      -0.41448095 </v>
   <v>      -0.13765202      -0.08320678      -0.37977390 </v>
   <v>      -0.12638180       0.24787224      -0.37983974 </v>
   <v>       0.36556470      -0.09521275      -0.37907326 </v>
   <v>       0.36609068       0.24442901      -0.37821582 </v>
   <v>       0.11788035      -0.24940869      -0.37927905 </v>
   <v>      -0.38752817       0.08499423      -0.37887174 </v>
   <v>       0.12169376       0.41493209      -0.37831680 </v>
   <v>      -0.38414221      -0.08395065      -0.38026080 </v>
   <v>      -0.12365082      -0.25366302      -0.37804244 </v>
   <v>       0.37572023       0.40837275      -0.37883648 </v>
   <v>      -0.13462653       0.41696706      -0.37834252 </v>
   <v>       0.37119572      -0.25897019      -0.37719561 </v>
   <v>      -0.38598262       0.25867650      -0.37775905 </v>
   <v>      -0.37334761      -0.25845941      -0.37858246 </v>
   <v>      -0.38012859       0.41359468      -0.37796296 </v>
   <v>       0.24593986       0.15834888      -0.34680418 </v>
   <v>       0.12935330      -0.41351067      -0.37930240 </v>
   <v>      -0.00818293       0.16470511      -0.34434869 </v>
   <v>      -0.00162671      -0.00325050      -0.34342984 </v>
   <v>       0.24390954      -0.00577554      -0.34365190 </v>
   <v>      -0.25562300       0.16284949      -0.34744019 </v>
   <v>      -0.13665327      -0.41339055      -0.37641992 </v>
   <v>       0.49306414       0.16151648      -0.34661733 </v>
   <v>       0.49435772      -0.00178526      -0.34604625 </v>
   <v>      -0.26404952       0.00342546      -0.34438578 </v>
   <v>       0.37065822      -0.42671902      -0.37556665 </v>
   <v>      -0.01254655      -0.16815626      -0.34383894 </v>
   <v>      -0.00146618       0.32701443      -0.34319195 </v>
   <v>       0.24979284      -0.17344785      -0.34138063 </v>
   <v>       0.23679059       0.33121151      -0.34136858 </v>
   <v>      -0.49873995      -0.17119056      -0.34685927 </v>
   <v>      -0.24886367       0.32971464      -0.34495821 </v>
   <v>      -0.38194156      -0.42370751      -0.37780847 </v>
   <v>      -0.25118446      -0.16773164      -0.34237003 </v>
   <v>       0.49548184       0.32712247      -0.34200286 </v>
   <v>       0.00585465      -0.33011541      -0.34517275 </v>
   <v>       0.24172449      -0.33068755      -0.34433799 </v>
   <v>       0.00040029      -0.49586385      -0.34535749 </v>
   <v>       0.23610411       0.49528837      -0.34126094 </v>
   <v>      -0.25590162      -0.33212582      -0.34242826 </v>
   <v>       0.48849157      -0.33613084      -0.34317415 </v>
   <v>      -0.24652883       0.49702875      -0.34317175 </v>
   <v>       0.49739743       0.49275337      -0.34346610 </v>
  </varray>
 </structure>
 <varray name="primitive_index" >
  <v type="int" >        1 </v>
  <v type="int" >       25 </v>
  <v type="int" >       21 </v>
  <v type="int" >        4 </v>
  <v type="int" >       26 </v>
  <v type="int" >       29 </v>
  <v type="int" >        2 </v>
  <v type="int" >       30 </v>
  <v type="int" >        5 </v>
  <v type="int" >       24 </v>
  <v type="int" >       49 </v>
  <v type="int" >       22 </v>
  <v type="int" >        8 </v>
  <v type="int" >        6 </v>
  <v type="int" >       69 </v>
  <v type="int" >       28 </v>
  <v type="int" >       46 </v>
  <v type="int" >       45 </v>
  <v type="int" >       50 </v>
  <v type="int" >       32 </v>
  <v type="int" >       53 </v>
  <v type="int" >       52 </v>
  <v type="int" >       27 </v>
  <v type="int" >       33 </v>
  <v type="int" >       31 </v>
  <v type="int" >       34 </v>
  <v type="int" >       17 </v>
  <v type="int" >       72 </v>
  <v type="int" >        3 </v>
  <v type="int" >       70 </v>
  <v type="int" >       56 </v>
  <v type="int" >       54 </v>
  <v type="int" >        9 </v>
  <v type="int" >       74 </v>
  <v type="int" >       20 </v>
  <v type="int" >       48 </v>
  <v type="int" >       77 </v>
  <v type="int" >       23 </v>
  <v type="int" >       47 </v>
  <v type="int" >       73 </v>
  <v type="int" >       18 </v>
  <v type="int" >       78 </v>
  <v type="int" >        7 </v>
  <v type="int" >       36 </v>
  <v type="int" >       12 </v>
  <v type="int" >       10 </v>
  <v type="int" >       35 </v>
  <v type="int" >       65 </v>
  <v type="int" >       51 </v>
  <v type="int" >       57 </v>
  <v type="int" >       71 </v>
  <v type="int" >       93 </v>
  <v type="int" >       94 </v>
  <v type="int" >       68 </v>
  <v type="int" >       80 </v>
  <v type="int" >       41 </v>
  <v type="int" >       42 </v>
  <v type="int" >       76 </v>
  <v type="int" >       55 </v>
  <v type="int" >       75 </v>
  <v type="int" >       66 </v>
  <v type="int" >       81 </v>
  <v type="int" >       37 </v>
  <v type="int" >       60 </v>
  <v type="int" >       58 </v>
  <v type="int" >       82 </v>
  <v type="int" >       79 </v>
  <v type="int" >       38 </v>
  <v type="int" >       19 </v>
  <v type="int" >       97 </v>
  <v type="int" >       11 </v>
  <v type="int" >       96 </v>
  <v type="int" >       13 </v>
  <v type="int" >       44 </v>
  <v type="int" >      117 </v>
  <v type="int" >      100 </v>
  <v type="int" >       43 </v>
  <v type="int" >       95 </v>
  <v type="int" >       98 </v>
  <v type="int" >       84 </v>
  <v type="int" >      101 </v>
  <v type="int" >       83 </v>
  <v type="int" >       39 </v>
  <v type="int" >       40 </v>
  <v type="int" >       16 </v>
  <v type="int" >       67 </v>
  <v type="int" >      120 </v>
  <v type="int" >       14 </v>
  <v type="int" >      118 </v>
  <v type="int" >      102 </v>
  <v type="int" >       59 </v>
  <v type="int" >      104 </v>
  <v type="int" >       89 </v>
  <v type="int" >       90 </v>
  <v type="int" >       61 </v>
  <v type="int" >       86 </v>
  <v type="int" >       85 </v>
  <v type="int" >       64 </v>
  <v type="int" >      113 </v>
  <v type="int" >       99 </v>
  <v type="int" >       62 </v>
  <v type="int" >      105 </v>
  <v type="int" >       92 </v>
  <v type="int" >      116 </v>
  <v type="int" >       15 </v>
  <v type="int" >      114 </v>
  <v type="int" >      125 </v>
  <v type="int" >      119 </v>
  <v type="int" >      121 </v>
  <v type="int" >       91 </v>
  <v type="int" >      122 </v>
  <v type="int" >      126 </v>
  <v type="int" >      103 </v>
  <v type="int" >      108 </v>
  <v type="int" >       87 </v>
  <v type="int" >       88 </v>
  <v type="int" >      106 </v>
  <v type="int" >       63 </v>
  <v type="int" >      141 </v>
  <v type="int" >      124 </v>
  <v type="int" >      142 </v>
  <v type="int" >      123 </v>
  <v type="int" >      127 </v>
  <v type="int" >      128 </v>
  <v type="int" >      130 </v>
  <v type="int" >      129 </v>
  <v type="int" >      115 </v>
  <v type="int" >      107 </v>
  <v type="int" >      144 </v>
  <v type="int" >      143 </v>
  <v type="int" >      109 </v>
  <v type="int" >      131 </v>
  <v type="int" >      132 </v>
  <v type="int" >      110 </v>
  <v type="int" >      112 </v>
  <v type="int" >      145 </v>
  <v type="int" >      138 </v>
  <v type="int" >      137 </v>
  <v type="int" >      148 </v>
  <v type="int" >      165 </v>
  <v type="int" >      146 </v>
  <v type="int" >      149 </v>
  <v type="int" >      168 </v>
  <v type="int" >      133 </v>
  <v type="int" >      134 </v>
  <v type="int" >      166 </v>
  <v type="int" >      150 </v>
  <v type="int" >      111 </v>
  <v type="int" >      152 </v>
  <v type="int" >      139 </v>
  <v type="int" >      140 </v>
  <v type="int" >      136 </v>
  <v type="int" >      135 </v>
  <v type="int" >      161 </v>
  <v type="int" >      147 </v>
  <v type="int" >      153 </v>
  <v type="int" >      162 </v>
  <v type="int" >      164 </v>
  <v type="int" >      167 </v>
  <v type="int" >      151 </v>
  <v type="int" >      154 </v>
  <v type="int" >      156 </v>
  <v type="int" >      169 </v>
  <v type="int" >      170 </v>
  <v type="int" >      173 </v>
  <v type="int" >      174 </v>
  <v type="int" >      163 </v>
  <v type="int" >      172 </v>
  <v type="int" >      155 </v>
  <v type="int" >      189 </v>
  <v type="int" >      176 </v>
  <v type="int" >      175 </v>
  <v type="int" >      190 </v>
  <v type="int" >      178 </v>
  <v type="int" >      157 </v>
  <v type="int" >      171 </v>
  <v type="int" >      177 </v>
  <v type="int" >      158 </v>
  <v type="int" >      160 </v>
  <v type="int" >      192 </v>
  <v type="int" >      191 </v>
  <v type="int" >      180 </v>
  <v type="int" >      179 </v>
  <v type="int" >      159 </v>
  <v type="int" >      186 </v>
  <v type="int" >      185 </v>
  <v type="int" >      182 </v>
  <v type="int" >      193 </v>
  <v type="int" >      181 </v>
  <v type="int" >      196 </v>
  <v type="int" >      213 </v>
  <v type="int" >      194 </v>
  <v type="int" >      188 </v>
  <v type="int" >      197 </v>
  <v type="int" >      184 </v>
  <v type="int" >      187 </v>
  <v type="int" >      183 </v>
  <v type="int" >      216 </v>
  <v type="int" >      200 </v>
  <v type="int" >      214 </v>
  <v type="int" >      198 </v>
  <v type="int" >      209 </v>
  <v type="int" >      195 </v>
  <v type="int" >      201 </v>
  <v type="int" >      215 </v>
  <v type="int" >      212 </v>
  <v type="int" >      202 </v>
  <v type="int" >      204 </v>
  <v type="int" >      210 </v>
  <v type="int" >      199 </v>
  <v type="int" >      211 </v>
  <v type="int" >      203 </v>
  <v type="int" >      222 </v>
  <v type="int" >      205 </v>
  <v type="int" >      221 </v>
  <v type="int" >      217 </v>
  <v type="int" >      218 </v>
  <v type="int" >      224 </v>
  <v type="int" >      208 </v>
  <v type="int" >      223 </v>
  <v type="int" >      219 </v>
  <v type="int" >      220 </v>
  <v type="int" >      206 </v>
  <v type="int" >      237 </v>
  <v type="int" >      225 </v>
  <v type="int" >      238 </v>
  <v type="int" >      226 </v>
  <v type="int" >      239 </v>
  <v type="int" >      228 </v>
  <v type="int" >      207 </v>
  <v type="int" >      240 </v>
  <v type="int" >      227 </v>
  <v type="int" >      233 </v>
  <v type="int" >      234 </v>
  <v type="int" >      229 </v>
  <v type="int" >      230 </v>
  <v type="int" >      236 </v>
  <v type="int" >      235 </v>
  <v type="int" >      232 </v>
  <v type="int" >      231 </v>
 </varray>
 <kpoints>
  <generation param="Monkhorst-Pack">
   <v type="int" name="divisions">       1        1        1 </v>
   <v name="usershift">      0.00000000       0.00000000       0.00000000 </v>
   <v name="genvec1">      1.00000000       0.00000000       0.00000000 </v>
   <v name="genvec2">      0.00000000       1.00000000       0.00000000 </v>
   <v name="genvec3">      0.00000000       0.00000000       1.00000000 </v>
   <v name="shift">      0.00000000       0.00000000       0.00000000 </v>
  </generation>
  <varray name="kpointlist" >
   <v>       0.00000000       0.00000000       0.00000000 </v>
  </varray>
  <varray name="weights" >
   <v>       1.00000000 </v>
  </varray>
 </kpoints>
 <parameters>
  <separator name="general" >
   <i type="string" name="SYSTEM">unknown system</i>
   <i type="logical" name="LCOMPAT"> F  </i>
  </separator>
  <separator name="electronic" >
   <i type="string" name="PREC">normal</i>
   <i name="ENMAX">    240.95700000</i>
   <i name="ENAUG">    291.05200000</i>
   <i name="EDIFF">      0.00010000</i>
   <i type="int" name="IALGO">    38</i>
   <i type="int" name="IWAVPR">    10</i>
   <i type="int" name="NBANDS">   496</i>
   <i name="NELECT">    720.00000000</i>
   <i type="int" name="TURBO">     0</i>
   <i type="int" name="IRESTART">     0</i>
   <i type="int" name="NREBOOT">     0</i>
   <i type="int" name="NMIN">     0</i>
   <i name="EREF">      0.00000000</i>
   <separator name="electronic smearing" >
    <i type="int" name="ISMEAR">     1</i>
    <i name="SIGMA">      0.20000000</i>
    <i name="KSPACING">      0.50000000</i>
    <i type="logical" name="KGAMMA"> T  </i>
   </separator>
   <separator name="electronic projectors" >
    <i type="logical" name="LREAL"> F  </i>
    <v name="ROPT">      0.00000000</v>
    <i type="int" name="LMAXPAW">  -100</i>
    <i type="int" name="LMAXMIX">     2</i>
    <i type="logical" name="NLSPLINE"> F  </i>
   </separator>
   <separator name="electronic startup" >
    <i type="int" name="ISTART">     1</i>
    <i type="int" name="ICHARG">     0</i>
    <i type="int" name="INIWAV">     1</i>
   </separator>
   <separator name="electronic spin" >
    <i type="int" name="ISPIN">     1</i>
    <i type="logical" name="LNONCOLLINEAR"> F  </i>
    <v name="MAGMOM">      1.00000000      1.00000000      1.00000000      1.00000000      1.00000000      1.00000000      1.00000000      1.00000000      1.00000000      1.00000000      1.00000000      1.00000000      1.00000000      1.00000000      1.00000000      1.00000000      1.00000000      1.00000000      1.00000000      1.00000000
      1.00000000      1.00000000      1.00000000      1.00000000      1.00000000      1.00000000      1.00000000      1.00000000      1.00000000      1.00000000      1.00000000      1.00000000      1.00000000      1.00000000      1.00000000      1.00000000      1.00000000      1.00000000      1.00000000      1.00000000
      1.00000000      1.00000000      1.00000000      1.00000000      1.00000000      1.00000000      1.00000000      1.00000000      1.00000000      1.00000000      1.00000000      1.00000000      1.00000000      1.00000000      1.00000000      1.00000000      1.00000000      1.00000000      1.00000000      1.00000000
      1.00000000      1.00000000      1.00000000      1.00000000      1.00000000      1.00000000      1.00000000      1.00000000      1.00000000      1.00000000      1.00000000      1.00000000      1.00000000      1.00000000      1.00000000      1.00000000      1.00000000      1.00000000      1.00000000      1.00000000
      1.00000000      1.00000000      1.00000000      1.00000000      1.00000000      1.00000000      1.00000000      1.00000000      1.00000000      1.00000000      1.00000000      1.00000000      1.00000000      1.00000000      1.00000000      1.00000000      1.00000000      1.00000000      1.00000000      1.00000000
      1.00000000      1.00000000      1.00000000      1.00000000      1.00000000      1.00000000      1.00000000      1.00000000      1.00000000      1.00000000      1.00000000      1.00000000      1.00000000      1.00000000      1.00000000      1.00000000      1.00000000      1.00000000      1.00000000      1.00000000
      1.00000000      1.00000000      1.00000000      1.00000000      1.00000000      1.00000000      1.00000000      1.00000000      1.00000000      1.00000000      1.00000000      1.00000000      1.00000000      1.00000000      1.00000000      1.00000000      1.00000000      1.00000000      1.00000000      1.00000000
      1.00000000      1.00000000      1.00000000      1.00000000      1.00000000      1.00000000      1.00000000      1.00000000      1.00000000      1.00000000      1.00000000      1.00000000      1.00000000      1.00000000      1.00000000      1.00000000      1.00000000      1.00000000      1.00000000      1.00000000
      1.00000000      1.00000000      1.00000000      1.00000000      1.00000000      1.00000000      1.00000000      1.00000000      1.00000000      1.00000000      1.00000000      1.00000000      1.00000000      1.00000000      1.00000000      1.00000000      1.00000000      1.00000000      1.00000000      1.00000000
      1.00000000      1.00000000      1.00000000      1.00000000      1.00000000      1.00000000      1.00000000      1.00000000      1.00000000      1.00000000      1.00000000      1.00000000      1.00000000      1.00000000      1.00000000      1.00000000      1.00000000      1.00000000      1.00000000      1.00000000
      1.00000000      1.00000000      1.00000000      1.00000000      1.00000000      1.00000000      1.00000000      1.00000000      1.00000000      1.00000000      1.00000000      1.00000000      1.00000000      1.00000000      1.00000000      1.00000000      1.00000000      1.00000000      1.00000000      1.00000000
      1.00000000      1.00000000      1.00000000      1.00000000      1.00000000      1.00000000      1.00000000      1.00000000      1.00000000      1.00000000      1.00000000      1.00000000      1.00000000      1.00000000      1.00000000      1.00000000      1.00000000      1.00000000      1.00000000      1.00000000
</v>
    <i name="NUPDOWN">     -1.00000000</i>
    <i type="logical" name="LSORBIT"> F  </i>
    <v name="SAXIS">      0.00000000      0.00000000      1.00000000</v>
    <i type="logical" name="LSPIRAL"> F  </i>
    <v name="QSPIRAL">      0.00000000      0.00000000      0.00000000</v>
    <i type="logical" name="LZEROZ"> F  </i>
   </separator>
   <separator name="electronic exchange-correlation" >
    <i type="logical" name="LASPH"> F  </i>
    <i type="logical" name="LMETAGGA"> F  </i>
   </separator>
   <separator name="electronic convergence" >
    <i type="int" name="NELM">    60</i>
    <i type="int" name="NELMDL">     0</i>
    <i type="int" name="NELMIN">     2</i>
    <i name="ENINI">    240.95700000</i>
    <separator name="electronic convergence detail" >
     <i type="logical" name="LDIAG"> T  </i>
     <i type="logical" name="LSUBROT"> F  </i>
     <i name="WEIMIN">      0.00000000</i>
     <i name="EBREAK">      0.00000005</i>
     <i name="DEPER">      0.30000000</i>
     <i type="int" name="NRMM">     4</i>
     <i name="TIME">      0.40000000</i>
    </separator>
   </separator>
   <separator name="electronic mixer" >
    <i name="AMIX">      0.40000000</i>
    <i name="BMIX">      1.00000000</i>
    <i name="AMIN">      0.10000000</i>
    <i name="AMIX_MAG">      1.60000000</i>
    <i name="BMIX_MAG">      1.00000000</i>
    <separator name="electronic mixer details" >
     <i type="int" name="IMIX">     4</i>
     <i type="logical" name="MIXFIRST"> F  </i>
     <i type="int" name="MAXMIX">   -45</i>
     <i name="WC">    100.00000000</i>
     <i type="int" name="INIMIX">     1</i>
     <i type="int" name="MIXPRE">     1</i>
     <i type="int" name="MREMOVE">     5</i>
    </separator>
   </separator>
   <separator name="electronic dipolcorrection" >
    <i type="logical" name="LDIPOL"> F  </i>
    <i type="logical" name="LMONO"> F  </i>
    <i type="int" name="IDIPOL">     0</i>
    <i name="EPSILON">      1.00000000</i>
    <v name="DIPOL">   -100.00000000   -100.00000000   -100.00000000</v>
    <i name="EFIELD">      0.00000000</i>
   </separator>
  </separator>
  <separator name="grids" >
   <i type="int" name="NGX">    48</i>
   <i type="int" name="NGY">    70</i>
   <i type="int" name="NGZ">   224</i>
   <i type="int" name="NGXF">    96</i>
   <i type="int" name="NGYF">   140</i>
   <i type="int" name="NGZF">   448</i>
   <i type="logical" name="ADDGRID"> F  </i>
  </separator>
  <separator name="ionic" >
   <i type="int" name="NSW">     0</i>
   <i type="int" name="IBRION">    -1</i>
   <i type="int" name="MDALGO">     0</i>
   <i type="int" name="ISIF">     2</i>
   <i name="PSTRESS">      0.00000000</i>
   <i name="EDIFFG">      0.00100000</i>
   <i type="int" name="NFREE">     0</i>
   <i name="POTIM">      0.50000000</i>
   <i name="SMASS">     -3.00000000</i>
   <i name="SCALEE">      1.00000000</i>
  </separator>
  <separator name="ionic md" >
   <i name="TEBEG">      0.00010000</i>
   <i name="TEEND">      0.00010000</i>
   <i type="int" name="NBLOCK">     1</i>
   <i type="int" name="KBLOCK">     1</i>
   <i type="int" name="NPACO">   256</i>
   <i name="APACO">     16.00000000</i>
  </separator>
  <separator name="symmetry" >
   <i type="int" name="ISYM">     2</i>
   <i name="SYMPREC">      0.00001000</i>
  </separator>
  <separator name="dos" >
   <i type="int" name="LORBIT">     0</i>
   <v name="RWIGS">     -1.00000000</v>
   <i type="int" name="NEDOS">   301</i>
   <i name="EMIN">     10.00000000</i>
   <i name="EMAX">    -10.00000000</i>
   <i name="EFERMI">      0.00000000</i>
  </separator>
  <separator name="writing" >
   <i type="int" name="NWRITE">     2</i>
   <i type="logical" name="LWAVE"> T  </i>
   <i type="logical" name="LDOWNSAMPLE"> F  </i>
   <i type="logical" name="LCHARG"> T  </i>
   <i type="logical" name="LPARD"> F  </i>
   <i type="logical" name="LVTOT"> F  </i>
   <i type="logical" name="LVHAR"> F  </i>
   <i type="logical" name="LELF"> F  </i>
   <i type="logical" name="LOPTICS"> F  </i>
   <v name="STM">      0.00000000      0.00000000      0.00000000      0.00000000      0.00000000      0.00000000      0.00000000</v>
  </separator>
  <separator name="performance" >
   <i type="int" name="NPAR">    16</i>
   <i type="int" name="NSIM">     4</i>
   <i type="int" name="NBLK">    -1</i>
   <i type="logical" name="LPLANE"> T  </i>
   <i type="logical" name="LSCALAPACK"> T  </i>
   <i type="logical" name="LSCAAWARE"> F  </i>
   <i type="logical" name="LSCALU"> F  </i>
   <i type="logical" name="LASYNC"> F  </i>
   <i type="logical" name="LORBITALREAL"> F  </i>
  </separator>
  <separator name="miscellaneous" >
   <i type="int" name="IDIOT">     3</i>
   <i type="int" name="ISPECIAL">     0</i>
   <i type="logical" name="LMUSIC"> F  </i>
   <v name="POMASS">     26.98100000</v>
   <v name="DARWINR">      0.00000000</v>
   <v name="DARWINV">      1.00000000</v>
   <i type="logical" name="LCORR"> T  </i>
  </separator>
  <i type="logical" name="GGA_COMPAT"> T  </i>
  <i type="logical" name="LBERRY"> F  </i>
  <i type="int" name="ICORELEVEL">     0</i>
  <i type="logical" name="LDAU"> F  </i>
  <i type="int" name="I_CONSTRAINED_M">     0</i>
  <separator name="electronic exchange-correlation" >
   <i type="string" name="GGA">--</i>
   <i type="int" name="VOSKOWN">     0</i>
   <i type="logical" name="LHFCALC"> F  </i>
   <i type="string" name="PRECFOCK"></i>
   <i type="logical" name="LSYMGRAD"> F  </i>
   <i type="logical" name="LHFONE"> F  </i>
   <i type="logical" name="LRHFCALC"> F  </i>
   <i type="logical" name="LTHOMAS"> F  </i>
   <i type="logical" name="LMODELHF"> F  </i>
   <i name="ENCUT4O">     -1.00000000</i>
   <i type="int" name="EXXOEP">     0</i>
   <i type="int" name="FOURORBIT">     0</i>
   <i name="AEXX">      0.00000000</i>
   <i name="HFALPHA">      0.00000000</i>
   <i name="MCALPHA">      0.00000000</i>
   <i name="ALDAX">      1.00000000</i>
   <i name="AGGAX">      1.00000000</i>
   <i name="ALDAC">      1.00000000</i>
   <i name="AGGAC">      1.00000000</i>
   <i type="int" name="NKREDX">     1</i>
   <i type="int" name="NKREDY">     1</i>
   <i type="int" name="NKREDZ">     1</i>
   <i type="logical" name="SHIFTRED"> F  </i>
   <i type="logical" name="ODDONLY"> F  </i>
   <i type="logical" name="EVENONLY"> F  </i>
   <i type="int" name="LMAXFOCK">     0</i>
   <i type="int" name="NMAXFOCKAE">     0</i>
   <i type="logical" name="LFOCKAEDFT"> F  </i>
   <i name="HFSCREEN">      0.00000000</i>
   <i name="HFSCREENC">      0.00000000</i>
   <i type="int" name="NBANDSGWLOW">     0</i>
  </separator>
  <separator name="vdW DFT" >
   <i type="logical" name="LUSE_VDW"> F  </i>
   <i name="Zab_VDW">     -0.84910000</i>
   <i name="PARAM1">      0.12340000</i>
   <i name="PARAM2">      1.00000000</i>
   <i name="PARAM3">      0.00000000</i>
  </separator>
  <separator name="model GW" >
   <i type="int" name="MODEL_GW">     0</i>
   <i name="MODEL_EPS0">     28.65106688</i>
   <i name="MODEL_ALPHA">      1.00000000</i>
  </separator>
  <separator name="linear response parameters" >
   <i type="logical" name="LEPSILON"> F  </i>
   <i type="logical" name="LRPA"> F  </i>
   <i type="logical" name="LNABLA"> F  </i>
   <i type="logical" name="LVEL"> F  </i>
   <i type="int" name="KINTER">     0</i>
   <i name="CSHIFT">      0.10000000</i>
   <i name="OMEGAMAX">     -1.00000000</i>
   <i name="DEG_THRESHOLD">      0.00200000</i>
   <i name="RTIME">     -0.10000000</i>
   <i name="WPLASMAI">      0.00000000</i>
   <v name="DFIELD">      0.00000000      0.00000000      0.00000000</v>
   <v name="WPLASMA">      0.00000000      0.00000000      0.00000000      0.00000000      0.00000000      0.00000000      0.00000000      0.00000000      0.00000000</v>
  </separator>
  <separator name="orbital magnetization" >
   <i type="logical" name="NUCIND"> F  </i>
   <v name="MAGPOS">      0.00000000      0.00000000      0.00000000</v>
   <i type="logical" name="LNICSALL"> T  </i>
   <i type="logical" name="ORBITALMAG"> F  </i>
   <i type="logical" name="LMAGBLOCH"> F  </i>
   <i type="logical" name="LCHIMAG"> F  </i>
   <i type="logical" name="LGAUGE"> T  </i>
   <i type="int" name="MAGATOM">     0</i>
   <v name="MAGDIPOL">      0.00000000      0.00000000      0.00000000</v>
   <v name="AVECCONST">      0.00000000      0.00000000      0.00000000</v>
  </separator>
  <separator name="response functions" >
   <i type="logical" name="LADDER"> F  </i>
   <i type="logical" name="LRPAFORCE"> F  </i>
   <i type="logical" name="LFXC"> F  </i>
   <i type="logical" name="LHARTREE"> T  </i>
   <i type="int" name="IBSE">     0</i>
   <v type="int" name="KPOINT">    -1     0     0     0</v>
   <i type="logical" name="LTCTE"> F  </i>
   <i type="logical" name="LTETE"> F  </i>
   <i type="logical" name="LTRIPLET"> F  </i>
   <i type="logical" name="LFXCEPS"> F  </i>
   <i type="logical" name="LFXHEG"> F  </i>
   <i type="int" name="NATURALO">     2</i>
   <i type="logical" name="L2ORDER"> F  </i>
   <i type="logical" name="LMP2LT"> F  </i>
   <i type="logical" name="LUSEW"> F  </i>
   <i name="ENCUTGW">     -2.00000000</i>
   <i name="ENCUTGWSOFT">     -2.00000000</i>
   <i name="ENCUTLF">     -1.00000000</i>
   <i type="int" name="LMAXMP2">    -1</i>
   <i name="SCISSOR">      0.00000000</i>
   <i type="int" name="NOMEGA">     0</i>
   <i type="int" name="NOMEGAR">     0</i>
   <i type="int" name="NBANDSGW">    -1</i>
   <i type="int" name="NBANDSO">    -1</i>
   <i type="int" name="NBANDSV">    -1</i>
   <i type="int" name="NELM">     1</i>
   <i type="int" name="NELMHF">     1</i>
   <i type="int" name="DIM">     3</i>
   <i type="int" name="ANTIRES">     0</i>
   <i name="OMEGAMAX">    -30.00000000</i>
   <i name="OMEGAMIN">    -30.00000000</i>
   <i name="OMEGATL">   -200.00000000</i>
   <i type="int" name="OMEGAGRID">   140</i>
   <i name="CSHIFT">     -0.10000000</i>
   <i type="logical" name="SELFENERGY"> F  </i>
   <i type="logical" name="LSPECTRAL"> F  </i>
   <i type="logical" name="LSPECTRALGW"> F  </i>
   <i type="logical" name="LSINGLES"> F  </i>
   <i type="logical" name="LFERMIGW"> F  </i>
   <i type="logical" name="ODDONLYGW"> F  </i>
   <i type="logical" name="EVENONLYGW"> F  </i>
   <i type="int" name="NKREDLFX">     1</i>
   <i type="int" name="NKREDLFY">     1</i>
   <i type="int" name="NKREDLFZ">     1</i>
   <i type="int" name="MAXMEM">  2800</i>
   <i type="int" name="TELESCOPE">     0</i>
   <i type="int" name="TAUPAR">     1</i>
   <i type="int" name="OMEGAPAR">    -1</i>
   <i name="LAMBDA">      1.00000000</i>
  </separator>
  <separator name="External order field" >
   <i name="OFIELD_KAPPA">      0.00000000</i>
   <v name="OFIELD_K">      0.00000000      0.00000000      0.00000000</v>
   <i name="OFIELD_Q6_NEAR">      0.00000000</i>
   <i name="OFIELD_Q6_FAR">      0.00000000</i>
   <i name="OFIELD_A">      0.00000000</i>
  </separator>
 </parameters>
 <atominfo>
  <atoms>     240 </atoms>
  <types>       1 </types>
  <array name="atoms" >
   <dimension dim="1">ion</dimension>
   <field type="string">element</field>
   <field type="int">atomtype</field>
   <set>
    <rc><c>Al</c><c>   1</c></rc>
    <rc><c>Al</c><c>   1</c></rc>
    <rc><c>Al</c><c>   1</c></rc>
    <rc><c>Al</c><c>   1</c></rc>
    <rc><c>Al</c><c>   1</c></rc>
    <rc><c>Al</c><c>   1</c></rc>
    <rc><c>Al</c><c>   1</c></rc>
    <rc><c>Al</c><c>   1</c></rc>
    <rc><c>Al</c><c>   1</c></rc>
    <rc><c>Al</c><c>   1</c></rc>
    <rc><c>Al</c><c>   1</c></rc>
    <rc><c>Al</c><c>   1</c></rc>
    <rc><c>Al</c><c>   1</c></rc>
    <rc><c>Al</c><c>   1</c></rc>
    <rc><c>Al</c><c>   1</c></rc>
    <rc><c>Al</c><c>   1</c></rc>
    <rc><c>Al</c><c>   1</c></rc>
    <rc><c>Al</c><c>   1</c></rc>
    <rc><c>Al</c><c>   1</c></rc>
    <rc><c>Al</c><c>   1</c></rc>
    <rc><c>Al</c><c>   1</c></rc>
    <rc><c>Al</c><c>   1</c></rc>
    <rc><c>Al</c><c>   1</c></rc>
    <rc><c>Al</c><c>   1</c></rc>
    <rc><c>Al</c><c>   1</c></rc>
    <rc><c>Al</c><c>   1</c></rc>
    <rc><c>Al</c><c>   1</c></rc>
    <rc><c>Al</c><c>   1</c></rc>
    <rc><c>Al</c><c>   1</c></rc>
    <rc><c>Al</c><c>   1</c></rc>
    <rc><c>Al</c><c>   1</c></rc>
    <rc><c>Al</c><c>   1</c></rc>
    <rc><c>Al</c><c>   1</c></rc>
    <rc><c>Al</c><c>   1</c></rc>
    <rc><c>Al</c><c>   1</c></rc>
    <rc><c>Al</c><c>   1</c></rc>
    <rc><c>Al</c><c>   1</c></rc>
    <rc><c>Al</c><c>   1</c></rc>
    <rc><c>Al</c><c>   1</c></rc>
    <rc><c>Al</c><c>   1</c></rc>
    <rc><c>Al</c><c>   1</c></rc>
    <rc><c>Al</c><c>   1</c></rc>
    <rc><c>Al</c><c>   1</c></rc>
    <rc><c>Al</c><c>   1</c></rc>
    <rc><c>Al</c><c>   1</c></rc>
    <rc><c>Al</c><c>   1</c></rc>
    <rc><c>Al</c><c>   1</c></rc>
    <rc><c>Al</c><c>   1</c></rc>
    <rc><c>Al</c><c>   1</c></rc>
    <rc><c>Al</c><c>   1</c></rc>
    <rc><c>Al</c><c>   1</c></rc>
    <rc><c>Al</c><c>   1</c></rc>
    <rc><c>Al</c><c>   1</c></rc>
    <rc><c>Al</c><c>   1</c></rc>
    <rc><c>Al</c><c>   1</c></rc>
    <rc><c>Al</c><c>   1</c></rc>
    <rc><c>Al</c><c>   1</c></rc>
    <rc><c>Al</c><c>   1</c></rc>
    <rc><c>Al</c><c>   1</c></rc>
    <rc><c>Al</c><c>   1</c></rc>
    <rc><c>Al</c><c>   1</c></rc>
    <rc><c>Al</c><c>   1</c></rc>
    <rc><c>Al</c><c>   1</c></rc>
    <rc><c>Al</c><c>   1</c></rc>
    <rc><c>Al</c><c>   1</c></rc>
    <rc><c>Al</c><c>   1</c></rc>
    <rc><c>Al</c><c>   1</c></rc>
    <rc><c>Al</c><c>   1</c></rc>
    <rc><c>Al</c><c>   1</c></rc>
    <rc><c>Al</c><c>   1</c></rc>
    <rc><c>Al</c><c>   1</c></rc>
    <rc><c>Al</c><c>   1</c></rc>
    <rc><c>Al</c><c>   1</c></rc>
    <rc><c>Al</c><c>   1</c></rc>
    <rc><c>Al</c><c>   1</c></rc>
    <rc><c>Al</c><c>   1</c></rc>
    <rc><c>Al</c><c>   1</c></rc>
    <rc><c>Al</c><c>   1</c></rc>
    <rc><c>Al</c><c>   1</c></rc>
    <rc><c>Al</c><c>   1</c></rc>
    <rc><c>Al</c><c>   1</c></rc>
    <rc><c>Al</c><c>   1</c></rc>
    <rc><c>Al</c><c>   1</c></rc>
    <rc><c>Al</c><c>   1</c></rc>
    <rc><c>Al</c><c>   1</c></rc>
    <rc><c>Al</c><c>   1</c></rc>
    <rc><c>Al</c><c>   1</c></rc>
    <rc><c>Al</c><c>   1</c></rc>
    <rc><c>Al</c><c>   1</c></rc>
    <rc><c>Al</c><c>   1</c></rc>
    <rc><c>Al</c><c>   1</c></rc>
    <rc><c>Al</c><c>   1</c></rc>
    <rc><c>Al</c><c>   1</c></rc>
    <rc><c>Al</c><c>   1</c></rc>
    <rc><c>Al</c><c>   1</c></rc>
    <rc><c>Al</c><c>   1</c></rc>
    <rc><c>Al</c><c>   1</c></rc>
    <rc><c>Al</c><c>   1</c></rc>
    <rc><c>Al</c><c>   1</c></rc>
    <rc><c>Al</c><c>   1</c></rc>
    <rc><c>Al</c><c>   1</c></rc>
    <rc><c>Al</c><c>   1</c></rc>
    <rc><c>Al</c><c>   1</c></rc>
    <rc><c>Al</c><c>   1</c></rc>
    <rc><c>Al</c><c>   1</c></rc>
    <rc><c>Al</c><c>   1</c></rc>
    <rc><c>Al</c><c>   1</c></rc>
    <rc><c>Al</c><c>   1</c></rc>
    <rc><c>Al</c><c>   1</c></rc>
    <rc><c>Al</c><c>   1</c></rc>
    <rc><c>Al</c><c>   1</c></rc>
    <rc><c>Al</c><c>   1</c></rc>
    <rc><c>Al</c><c>   1</c></rc>
    <rc><c>Al</c><c>   1</c></rc>
    <rc><c>Al</c><c>   1</c></rc>
    <rc><c>Al</c><c>   1</c></rc>
    <rc><c>Al</c><c>   1</c></rc>
    <rc><c>Al</c><c>   1</c></rc>
    <rc><c>Al</c><c>   1</c></rc>
    <rc><c>Al</c><c>   1</c></rc>
    <rc><c>Al</c><c>   1</c></rc>
    <rc><c>Al</c><c>   1</c></rc>
    <rc><c>Al</c><c>   1</c></rc>
    <rc><c>Al</c><c>   1</c></rc>
    <rc><c>Al</c><c>   1</c></rc>
    <rc><c>Al</c><c>   1</c></rc>
    <rc><c>Al</c><c>   1</c></rc>
    <rc><c>Al</c><c>   1</c></rc>
    <rc><c>Al</c><c>   1</c></rc>
    <rc><c>Al</c><c>   1</c></rc>
    <rc><c>Al</c><c>   1</c></rc>
    <rc><c>Al</c><c>   1</c></rc>
    <rc><c>Al</c><c>   1</c></rc>
    <rc><c>Al</c><c>   1</c></rc>
    <rc><c>Al</c><c>   1</c></rc>
    <rc><c>Al</c><c>   1</c></rc>
    <rc><c>Al</c><c>   1</c></rc>
    <rc><c>Al</c><c>   1</c></rc>
    <rc><c>Al</c><c>   1</c></rc>
    <rc><c>Al</c><c>   1</c></rc>
    <rc><c>Al</c><c>   1</c></rc>
    <rc><c>Al</c><c>   1</c></rc>
    <rc><c>Al</c><c>   1</c></rc>
    <rc><c>Al</c><c>   1</c></rc>
    <rc><c>Al</c><c>   1</c></rc>
    <rc><c>Al</c><c>   1</c></rc>
    <rc><c>Al</c><c>   1</c></rc>
    <rc><c>Al</c><c>   1</c></rc>
    <rc><c>Al</c><c>   1</c></rc>
    <rc><c>Al</c><c>   1</c></rc>
    <rc><c>Al</c><c>   1</c></rc>
    <rc><c>Al</c><c>   1</c></rc>
    <rc><c>Al</c><c>   1</c></rc>
    <rc><c>Al</c><c>   1</c></rc>
    <rc><c>Al</c><c>   1</c></rc>
    <rc><c>Al</c><c>   1</c></rc>
    <rc><c>Al</c><c>   1</c></rc>
    <rc><c>Al</c><c>   1</c></rc>
    <rc><c>Al</c><c>   1</c></rc>
    <rc><c>Al</c><c>   1</c></rc>
    <rc><c>Al</c><c>   1</c></rc>
    <rc><c>Al</c><c>   1</c></rc>
    <rc><c>Al</c><c>   1</c></rc>
    <rc><c>Al</c><c>   1</c></rc>
    <rc><c>Al</c><c>   1</c></rc>
    <rc><c>Al</c><c>   1</c></rc>
    <rc><c>Al</c><c>   1</c></rc>
    <rc><c>Al</c><c>   1</c></rc>
    <rc><c>Al</c><c>   1</c></rc>
    <rc><c>Al</c><c>   1</c></rc>
    <rc><c>Al</c><c>   1</c></rc>
    <rc><c>Al</c><c>   1</c></rc>
    <rc><c>Al</c><c>   1</c></rc>
    <rc><c>Al</c><c>   1</c></rc>
    <rc><c>Al</c><c>   1</c></rc>
    <rc><c>Al</c><c>   1</c></rc>
    <rc><c>Al</c><c>   1</c></rc>
    <rc><c>Al</c><c>   1</c></rc>
    <rc><c>Al</c><c>   1</c></rc>
    <rc><c>Al</c><c>   1</c></rc>
    <rc><c>Al</c><c>   1</c></rc>
    <rc><c>Al</c><c>   1</c></rc>
    <rc><c>Al</c><c>   1</c></rc>
    <rc><c>Al</c><c>   1</c></rc>
    <rc><c>Al</c><c>   1</c></rc>
    <rc><c>Al</c><c>   1</c></rc>
    <rc><c>Al</c><c>   1</c></rc>
    <rc><c>Al</c><c>   1</c></rc>
    <rc><c>Al</c><c>   1</c></rc>
    <rc><c>Al</c><c>   1</c></rc>
    <rc><c>Al</c><c>   1</c></rc>
    <rc><c>Al</c><c>   1</c></rc>
    <rc><c>Al</c><c>   1</c></rc>
    <rc><c>Al</c><c>   1</c></rc>
    <rc><c>Al</c><c>   1</c></rc>
    <rc><c>Al</c><c>   1</c></rc>
    <rc><c>Al</c><c>   1</c></rc>
    <rc><c>Al</c><c>   1</c></rc>
    <rc><c>Al</c><c>   1</c></rc>
    <rc><c>Al</c><c>   1</c></rc>
    <rc><c>Al</c><c>   1</c></rc>
    <rc><c>Al</c><c>   1</c></rc>
    <rc><c>Al</c><c>   1</c></rc>
    <rc><c>Al</c><c>   1</c></rc>
    <rc><c>Al</c><c>   1</c></rc>
    <rc><c>Al</c><c>   1</c></rc>
    <rc><c>Al</c><c>   1</c></rc>
    <rc><c>Al</c><c>   1</c></rc>
    <rc><c>Al</c><c>   1</c></rc>
    <rc><c>Al</c><c>   1</c></rc>
    <rc><c>Al</c><c>   1</c></rc>
    <rc><c>Al</c><c>   1</c></rc>
    <rc><c>Al</c><c>   1</c></rc>
    <rc><c>Al</c><c>   1</c></rc>
    <rc><c>Al</c><c>   1</c></rc>
    <rc><c>Al</c><c>   1</c></rc>
    <rc><c>Al</c><c>   1</c></rc>
    <rc><c>Al</c><c>   1</c></rc>
    <rc><c>Al</c><c>   1</c></rc>
    <rc><c>Al</c><c>   1</c></rc>
    <rc><c>Al</c><c>   1</c></rc>
    <rc><c>Al</c><c>   1</c></rc>
    <rc><c>Al</c><c>   1</c></rc>
    <rc><c>Al</c><c>   1</c></rc>
    <rc><c>Al</c><c>   1</c></rc>
    <rc><c>Al</c><c>   1</c></rc>
    <rc><c>Al</c><c>   1</c></rc>
    <rc><c>Al</c><c>   1</c></rc>
    <rc><c>Al</c><c>   1</c></rc>
    <rc><c>Al</c><c>   1</c></rc>
    <rc><c>Al</c><c>   1</c></rc>
    <rc><c>Al</c><c>   1</c></rc>
    <rc><c>Al</c><c>   1</c></rc>
    <rc><c>Al</c><c>   1</c></rc>
    <rc><c>Al</c><c>   1</c></rc>
    <rc><c>Al</c><c>   1</c></rc>
    <rc><c>Al</c><c>   1</c></rc>
    <rc><c>Al</c><c>   1</c></rc>
    <rc><c>Al</c><c>   1</c></rc>
    <rc><c>Al</c><c>   1</c></rc>
   </set>
  </array>
  <array name="atomtypes" >
   <dimension dim="1">type</dimension>
   <field type="int">atomspertype</field>
   <field type="string">element</field>
   <field>mass</field>
   <field>valence</field>
   <field type="string">pseudopotential</field>
   <set>
    <rc><c> 240</c><c>Al</c><c>     26.98100000</c><c>      3.00000000</c><c>  PAW Al 17Apr2000                      </c></rc>
   </set>
  </array>
 </atominfo>
 <structure name="initialpos" >
  <crystal>
   <varray name="basis" >
    <v>      11.45512986       0.00000000       0.00000000 </v>
    <v>       0.00000000      17.18269478       0.00000000 </v>
    <v>       0.00000000       0.00000000      58.22500000 </v>
   </varray>
   <i name="volume">  11460.42675000 </i>
   <varray name="rec_basis" >
    <v>       0.08729713       0.00000000       0.00000000 </v>
    <v>       0.00000000       0.05819809       0.00000000 </v>
    <v>       0.00000000       0.00000000       0.01717475 </v>
   </varray>
  </crystal>
  <varray name="positions" >
   <v>       0.11258043       0.07282645       0.34531242 </v>
   <v>       0.36130483       0.08094457       0.33988200 </v>
   <v>       0.61505055       0.08159473       0.34651658 </v>
   <v>       0.86810602       0.08487685       0.34120106 </v>
   <v>       0.10970015       0.25162356       0.34319530 </v>
   <v>       0.37264916       0.25191258       0.34490803 </v>
   <v>       0.61329023       0.24965830       0.34310627 </v>
   <v>       0.87165368       0.25117588       0.34540470 </v>
   <v>       0.11682457       0.42224058       0.34199661 </v>
   <v>       0.36977238       0.41672669       0.34256279 </v>
   <v>       0.61293002       0.41240164       0.34300591 </v>
   <v>       0.86031079       0.41448195       0.34271201 </v>
   <v>       0.11426852       0.58836818       0.34213121 </v>
   <v>       0.35312878       0.58106813       0.34189873 </v>
   <v>       0.60700874       0.58501342       0.34154811 </v>
   <v>       0.85764284       0.58919102       0.34336850 </v>
   <v>       0.11337519       0.74986874       0.34350708 </v>
   <v>       0.35716515       0.73964513       0.34338774 </v>
   <v>       0.61816166       0.74627960       0.34352918 </v>
   <v>       0.85655861       0.75320303       0.34242763 </v>
   <v>       0.11092473       0.90969957       0.34286397 </v>
   <v>       0.36661158       0.90932035       0.34442914 </v>
   <v>       0.61564338       0.91254767       0.34321676 </v>
   <v>       0.85733453       0.92155176       0.34271055 </v>
   <v>       0.99911577       0.99959886       0.37998055 </v>
   <v>       0.25036297       0.99827064       0.37898436 </v>
   <v>       0.49155437       0.99893966       0.37869823 </v>
   <v>       0.74728513       0.00187911       0.37970050 </v>
   <v>       0.99265011       0.16284631       0.37904736 </v>
   <v>       0.24806817       0.16979414       0.37664627 </v>
   <v>       0.49273475       0.16676804       0.37892244 </v>
   <v>       0.74768756       0.16749984       0.37856505 </v>
   <v>       0.99949843       0.32818191       0.37995539 </v>
   <v>       0.24869101       0.33782104       0.37625645 </v>
   <v>       0.49833814       0.34038581       0.38014879 </v>
   <v>       0.74202723       0.33489938       0.37886697 </v>
   <v>       0.99582283       0.49110390       0.37928486 </v>
   <v>       0.25297282       0.49961414       0.37728236 </v>
   <v>       0.48544433       0.50141797       0.37614909 </v>
   <v>       0.74441093       0.50223540       0.37787505 </v>
   <v>       0.99098916       0.66228484       0.37844413 </v>
   <v>       0.24508450       0.66427976       0.37914597 </v>
   <v>       0.49098718       0.66247428       0.37675249 </v>
   <v>       0.74109986       0.66850291       0.37805589 </v>
   <v>       0.98915569       0.83095043       0.37954425 </v>
   <v>       0.24372971       0.83203651       0.37873924 </v>
   <v>       0.49130180       0.82624517       0.37818292 </v>
   <v>       0.73238145       0.83520577       0.37713966 </v>
   <v>       0.11137543       0.08274823       0.41263848 </v>
   <v>       0.36580711       0.08027000       0.41254386 </v>
   <v>       0.61214016       0.08805664       0.41223674 </v>
   <v>       0.86972110       0.08217445       0.41490531 </v>
   <v>       0.12182322       0.24544600       0.41226247 </v>
   <v>       0.37073543       0.25470316       0.41177059 </v>
   <v>       0.62253717       0.25237292       0.41157958 </v>
   <v>       0.86087525       0.24968951       0.41230450 </v>
   <v>       0.12303494       0.41169423       0.41175562 </v>
   <v>       0.36027953       0.41570158       0.41281945 </v>
   <v>       0.61624540       0.42151635       0.41168860 </v>
   <v>       0.87047134       0.41593279       0.41176356 </v>
   <v>       0.11528877       0.57505825       0.41244958 </v>
   <v>       0.37410966       0.58099456       0.41286344 </v>
   <v>       0.61992046       0.58268758       0.41120460 </v>
   <v>       0.87083195       0.58055971       0.41227549 </v>
   <v>       0.11782645       0.75066473       0.41272224 </v>
   <v>       0.37135846       0.74607716       0.41456273 </v>
   <v>       0.62048362       0.74749760       0.41330437 </v>
   <v>       0.87218514       0.74123830       0.41144072 </v>
   <v>       0.12206777       0.91145624       0.41135152 </v>
   <v>       0.37967551       0.91173215       0.41326081 </v>
   <v>       0.61806642       0.91720670       0.41250365 </v>
   <v>       0.87042530       0.91027177       0.41483732 </v>
   <v>       0.00110506       0.99880368       0.45020817 </v>
   <v>       0.24093291       0.00021327       0.44478860 </v>
   <v>       0.49459769       0.00013223       0.44755153 </v>
   <v>       0.73874770       0.00309105       0.44850327 </v>
   <v>       0.99538411       0.16834639       0.44682633 </v>
   <v>       0.25166898       0.17654751       0.44729431 </v>
   <v>       0.50623061       0.16669821       0.44881847 </v>
   <v>       0.74713757       0.17262446       0.44634656 </v>
   <v>       0.99528007       0.33625672       0.44587696 </v>
   <v>       0.24258047       0.33830747       0.44752961 </v>
   <v>       0.49353509       0.33152911       0.44700598 </v>
   <v>       0.74043585       0.33682632       0.44639474 </v>
   <v>       0.99421888       0.50239157       0.44647410 </v>
   <v>       0.25094393       0.49978910       0.44561475 </v>
   <v>       0.50066308       0.49953181       0.44532984 </v>
   <v>       0.74898920       0.50427358       0.44742062 </v>
   <v>       0.00069924       0.66565395       0.44638246 </v>
   <v>       0.25046325       0.66556069       0.44790011 </v>
   <v>       0.50317662       0.66296922       0.44748794 </v>
   <v>       0.76229557       0.66670606       0.44796561 </v>
   <v>       0.99424375       0.83097524       0.44756515 </v>
   <v>       0.24621509       0.83163325       0.44726985 </v>
   <v>       0.49626742       0.82990970       0.44811316 </v>
   <v>       0.75390712       0.83446143       0.44637224 </v>
   <v>       0.12289184       0.09192976       0.48469875 </v>
   <v>       0.37509688       0.08970312       0.48241126 </v>
   <v>       0.63305557       0.07816276       0.48401761 </v>
   <v>       0.86795657       0.09060721       0.48197685 </v>
   <v>       0.13426791       0.25535711       0.48258514 </v>
   <v>       0.37274068       0.24908496       0.48318993 </v>
   <v>       0.62639817       0.25160964       0.48398105 </v>
   <v>       0.86323710       0.26109676       0.48398471 </v>
   <v>       0.12463445       0.41297215       0.48255745 </v>
   <v>       0.37303072       0.42358720       0.48142181 </v>
   <v>       0.63039731       0.42014928       0.48111339 </v>
   <v>       0.87741543       0.41997342       0.48269040 </v>
   <v>       0.11867802       0.57429297       0.48317822 </v>
   <v>       0.37350859       0.58534820       0.48176903 </v>
   <v>       0.61089728       0.58899525       0.48134712 </v>
   <v>       0.86393764       0.58916499       0.48477485 </v>
   <v>       0.12786436       0.74368726       0.48109316 </v>
   <v>       0.37319052       0.75140083       0.48187562 </v>
   <v>       0.62727465       0.75081626       0.48235547 </v>
   <v>       0.87700735       0.75705762       0.48393593 </v>
   <v>       0.13680359       0.91712250       0.48272046 </v>
   <v>       0.36809404       0.92148251       0.48362711 </v>
   <v>       0.62194794       0.91424992       0.48251876 </v>
   <v>       0.87176835       0.91627582       0.48266169 </v>
   <v>       0.00105952       0.00015562       0.51689401 </v>
   <v>       0.24434096       0.99762620       0.51822589 </v>
   <v>       0.49425377       0.00186177       0.51663546 </v>
   <v>       0.74117964       0.99521749       0.51673989 </v>
   <v>       0.98292800       0.16461140       0.51535544 </v>
   <v>       0.23736984       0.17215751       0.51762522 </v>
   <v>       0.49813771       0.16315886       0.51592994 </v>
   <v>       0.73342943       0.17139350       0.51852031 </v>
   <v>       0.98844374       0.33468857       0.51902701 </v>
   <v>       0.24344823       0.33703394       0.51808451 </v>
   <v>       0.49034033       0.33368973       0.51830457 </v>
   <v>       0.74103719       0.33668918       0.51898634 </v>
   <v>       0.98213572       0.49762846       0.51761669 </v>
   <v>       0.23537615       0.50235564       0.51854277 </v>
   <v>       0.49423192       0.49665254       0.51827040 </v>
   <v>       0.73090195       0.49900946       0.51680844 </v>
   <v>       0.99350303       0.66563495       0.51748638 </v>
   <v>       0.23882383       0.66427582       0.51505415 </v>
   <v>       0.49158754       0.66423626       0.51558437 </v>
   <v>       0.72926433       0.66424385       0.51783972 </v>
   <v>       0.99812536       0.83256312       0.51682957 </v>
   <v>       0.24198596       0.82719713       0.51684350 </v>
   <v>       0.48855098       0.83722631       0.51725763 </v>
   <v>       0.74154327       0.83284749       0.51659493 </v>
   <v>       0.10697747       0.08072373       0.55176334 </v>
   <v>       0.36101558       0.08489317       0.55145697 </v>
   <v>       0.61274506       0.08266874       0.55129233 </v>
   <v>       0.87036124       0.08562295       0.55115722 </v>
   <v>       0.11510232       0.24678454       0.55128128 </v>
   <v>       0.36202829       0.24577054       0.55154401 </v>
   <v>       0.62382831       0.25065947       0.55368921 </v>
   <v>       0.85821878       0.25536672       0.55308370 </v>
   <v>       0.12246231       0.41097552       0.55300202 </v>
   <v>       0.36590592       0.41983010       0.55245742 </v>
   <v>       0.62258020       0.42141724       0.55213786 </v>
   <v>       0.87071400       0.41879809       0.55380343 </v>
   <v>       0.11490454       0.58093472       0.55431924 </v>
   <v>       0.37315903       0.57910474       0.55062298 </v>
   <v>       0.63179498       0.58436616       0.55283239 </v>
   <v>       0.87058891       0.57823343       0.55329296 </v>
   <v>       0.12235857       0.74850712       0.55055510 </v>
   <v>       0.37231392       0.74967596       0.54976007 </v>
   <v>       0.61685319       0.75160075       0.55181992 </v>
   <v>       0.86185329       0.74381325       0.55081169 </v>
   <v>       0.11739871       0.91794880       0.55165631 </v>
   <v>       0.36777195       0.91570658       0.55160319 </v>
   <v>       0.61688060       0.91826501       0.55200228 </v>
   <v>       0.87291668       0.91969903       0.54903737 </v>
   <v>       0.98905253       0.99779667       0.58499607 </v>
   <v>       0.24626794       0.99309385       0.58587577 </v>
   <v>       0.49611889       0.99672201       0.58787941 </v>
   <v>       0.75412535       0.99205792       0.58350819 </v>
   <v>       0.99146738       0.16447564       0.58599935 </v>
   <v>       0.24443634       0.15917516       0.58781177 </v>
   <v>       0.49720379       0.16453390       0.58536011 </v>
   <v>       0.74358896       0.16139768       0.58638826 </v>
   <v>       0.99054560       0.33829720       0.58717346 </v>
   <v>       0.25324087       0.33754552       0.58549600 </v>
   <v>       0.49835285       0.33236621       0.58558631 </v>
   <v>       0.74941453       0.33240640       0.58690978 </v>
   <v>       0.99039024       0.49867933       0.58987778 </v>
   <v>       0.24254320       0.49923866       0.58883778 </v>
   <v>       0.49640659       0.50434549       0.58551905 </v>
   <v>       0.73768024       0.49668306       0.58586287 </v>
   <v>       0.98383953       0.66821878       0.58902695 </v>
   <v>       0.25378708       0.65962535       0.58512015 </v>
   <v>       0.50075899       0.66397100       0.58791449 </v>
   <v>       0.74275764       0.66480198       0.58786971 </v>
   <v>       0.00120164       0.82672031       0.58517322 </v>
   <v>       0.25415883       0.82557665       0.58649420 </v>
   <v>       0.48647093       0.82569351       0.58601864 </v>
   <v>       0.74832169       0.83368195       0.58722888 </v>
   <v>       0.11841826       0.07800435       0.62110768 </v>
   <v>       0.36538171       0.07385070       0.62105452 </v>
   <v>       0.61247183       0.08499423       0.62112826 </v>
   <v>       0.86599366       0.08458555       0.61878601 </v>
   <v>       0.12122710       0.25785500       0.62082423 </v>
   <v>       0.36609068       0.24442901       0.62178418 </v>
   <v>       0.61401738       0.25867650       0.62224095 </v>
   <v>       0.87361820       0.24787224       0.62016026 </v>
   <v>       0.12169376       0.41493209       0.62168320 </v>
   <v>       0.37572023       0.40837275       0.62116352 </v>
   <v>       0.61987141       0.41359468       0.62203704 </v>
   <v>       0.86537347       0.41696706       0.62165748 </v>
   <v>       0.12935330       0.58648933       0.62069760 </v>
   <v>       0.37065822       0.57328098       0.62443335 </v>
   <v>       0.61805844       0.57629249       0.62219153 </v>
   <v>       0.86334673       0.58660945       0.62358008 </v>
   <v>       0.11788035       0.75059131       0.62072095 </v>
   <v>       0.37119572       0.74102981       0.62280439 </v>
   <v>       0.62665239       0.74154059       0.62141754 </v>
   <v>       0.87634918       0.74633698       0.62195756 </v>
   <v>       0.11467231       0.91014094       0.62009063 </v>
   <v>       0.36556470       0.90478725       0.62092674 </v>
   <v>       0.61585779       0.91604935       0.61973920 </v>
   <v>       0.86234798       0.91679322       0.62022610 </v>
   <v>       0.99837329       0.99674950       0.65657016 </v>
   <v>       0.24390954       0.99422446       0.65634810 </v>
   <v>       0.49435772       0.99821474       0.65395375 </v>
   <v>       0.73595048       0.00342546       0.65561422 </v>
   <v>       0.99181707       0.16470511       0.65565131 </v>
   <v>       0.24593986       0.15834888       0.65319582 </v>
   <v>       0.49306414       0.16151648       0.65338267 </v>
   <v>       0.74437700       0.16284949       0.65255981 </v>
   <v>       0.99853382       0.32701443       0.65680805 </v>
   <v>       0.23679059       0.33121151       0.65863142 </v>
   <v>       0.49548184       0.32712247       0.65799714 </v>
   <v>       0.75113633       0.32971464       0.65504179 </v>
   <v>       0.00040029       0.50413615       0.65464251 </v>
   <v>       0.23610411       0.49528837       0.65873906 </v>
   <v>       0.49739743       0.49275337       0.65653390 </v>
   <v>       0.75347117       0.49702875       0.65682825 </v>
   <v>       0.00585465       0.66988459       0.65482725 </v>
   <v>       0.24172449       0.66931245       0.65566201 </v>
   <v>       0.48849157       0.66386916       0.65682585 </v>
   <v>       0.74409838       0.66787418       0.65757174 </v>
   <v>       0.98745345       0.83184374       0.65616106 </v>
   <v>       0.24979284       0.82655215       0.65861937 </v>
   <v>       0.50126005       0.82880944       0.65314073 </v>
   <v>       0.74881554       0.83226836       0.65762997 </v>
  </varray>
 </structure>
 <calculation>
  <scstep>
   <time name="dav">   17.05   17.04</time>
   <time name="total">   17.40   17.40</time>
   <energy>
    <i name="alphaZ">    -17.01491454 </i>
    <i name="ewald"> 477211.25223489 </i>
    <i name="hartreedc">-489710.74364297 </i>
    <i name="XCdc">  -6101.85434878 </i>
    <i name="pawpsdc">  42412.75244041 </i>
    <i name="pawaedc"> -34966.58263556 </i>
    <i name="eentropy">     -0.02829273 </i>
    <i name="bandstr">  -2760.01997029 </i>
    <i name="atom">  12909.57480638 </i>
    <i name="e_fr_energy">  -1022.66432320 </i>
    <i name="e_wo_entrp">  -1022.63603047 </i>
    <i name="e_0_energy">  -1022.65489229 </i>
   </energy>
  </scstep>
  <scstep>
   <time name="dav">   21.27   21.26</time>
   <time name="total">   21.63   21.62</time>
   <energy>
    <i name="e_fr_energy">  -1250.33296380 </i>
    <i name="e_wo_entrp">  -1250.31045376 </i>
    <i name="e_0_energy">  -1250.32546045 </i>
   </energy>
  </scstep>
  <scstep>
   <time name="dav">   20.67   20.67</time>
   <time name="total">   21.03   21.02</time>
   <energy>
    <i name="e_fr_energy">  -1073.44482852 </i>
    <i name="e_wo_entrp">  -1073.31953618 </i>
    <i name="e_0_energy">  -1073.40306441 </i>
   </energy>
  </scstep>
  <scstep>
   <time name="dav">   20.24   20.23</time>
   <time name="total">   20.59   20.58</time>
   <energy>
    <i name="e_fr_energy">   -970.28281764 </i>
    <i name="e_wo_entrp">   -970.55180778 </i>
    <i name="e_0_energy">   -970.37248102 </i>
   </energy>
  </scstep>
  <scstep>
   <time name="dav">   18.63   18.62</time>
   <time name="total">   18.99   18.98</time>
   <energy>
    <i name="e_fr_energy">   -968.86268039 </i>
    <i name="e_wo_entrp">   -968.90647005 </i>
    <i name="e_0_energy">   -968.87727694 </i>
   </energy>
  </scstep>
  <scstep>
   <time name="dav">   18.63   18.62</time>
   <time name="total">   18.99   18.98</time>
   <energy>
    <i name="e_fr_energy">   -970.10808505 </i>
    <i name="e_wo_entrp">   -970.27751339 </i>
    <i name="e_0_energy">   -970.16456116 </i>
   </energy>
  </scstep>
  <scstep>
   <time name="dav">   17.74   17.73</time>
   <time name="total">   18.10   18.09</time>
   <energy>
    <i name="e_fr_energy">   -969.74604391 </i>
    <i name="e_wo_entrp">   -969.80159559 </i>
    <i name="e_0_energy">   -969.76456114 </i>
   </energy>
  </scstep>
  <scstep>
   <time name="dav">   17.93   17.92</time>
   <time name="total">   18.28   18.28</time>
   <energy>
    <i name="e_fr_energy">   -968.74453483 </i>
    <i name="e_wo_entrp">   -968.91617055 </i>
    <i name="e_0_energy">   -968.80174674 </i>
   </energy>
  </scstep>
  <scstep>
   <time name="dav">   17.73   17.73</time>
   <time name="total">   18.09   18.08</time>
   <energy>
    <i name="e_fr_energy">   -968.62984341 </i>
    <i name="e_wo_entrp">   -968.79576054 </i>
    <i name="e_0_energy">   -968.68514912 </i>
   </energy>
  </scstep>
  <scstep>
   <time name="dav">   17.91   17.91</time>
   <time name="total">   18.28   18.28</time>
   <energy>
    <i name="e_fr_energy">   -968.51537679 </i>
    <i name="e_wo_entrp">   -968.65696956 </i>
    <i name="e_0_energy">   -968.56257438 </i>
   </energy>
  </scstep>
  <scstep>
   <time name="dav">   18.26   18.25</time>
   <time name="total">   18.61   18.61</time>
   <energy>
    <i name="e_fr_energy">   -968.52276798 </i>
    <i name="e_wo_entrp">   -968.66372292 </i>
    <i name="e_0_energy">   -968.56975296 </i>
   </energy>
  </scstep>
  <scstep>
   <time name="dav">   17.86   17.85</time>
   <time name="total">   18.21   18.21</time>
   <energy>
    <i name="e_fr_energy">   -968.52299039 </i>
    <i name="e_wo_entrp">   -968.66457904 </i>
    <i name="e_0_energy">   -968.57018660 </i>
   </energy>
  </scstep>
  <scstep>
   <time name="dav">   21.49   21.48</time>
   <time name="total">   21.84   21.84</time>
   <energy>
    <i name="e_fr_energy">   -968.52410818 </i>
    <i name="e_wo_entrp">   -968.66552287 </i>
    <i name="e_0_energy">   -968.57124641 </i>
   </energy>
  </scstep>
  <scstep>
   <time name="dav">   17.09   17.09</time>
   <time name="total">   17.45   17.45</time>
   <energy>
    <i name="e_fr_energy">   -968.52455488 </i>
    <i name="e_wo_entrp">   -968.67288078 </i>
    <i name="e_0_energy">   -968.57399684 </i>
   </energy>
  </scstep>
  <scstep>
   <time name="dav">   16.34   16.33</time>
   <time name="total">   16.69   16.69</time>
   <energy>
    <i name="e_fr_energy">   -968.52393423 </i>
    <i name="e_wo_entrp">   -968.67458168 </i>
    <i name="e_0_energy">   -968.57415004 </i>
   </energy>
  </scstep>
  <scstep>
   <time name="dav">   18.62   18.62</time>
   <time name="total">   18.98   18.98</time>
   <energy>
    <i name="e_fr_energy">   -968.52355330 </i>
    <i name="e_wo_entrp">   -968.67302966 </i>
    <i name="e_0_energy">   -968.57337876 </i>
   </energy>
  </scstep>
  <scstep>
   <time name="dav">   18.71   18.70</time>
   <time name="total">   19.07   19.06</time>
   <energy>
    <i name="e_fr_energy">   -968.52357255 </i>
    <i name="e_wo_entrp">   -968.67392157 </i>
    <i name="e_0_energy">   -968.57368889 </i>
   </energy>
  </scstep>
  <scstep>
   <time name="dav">   17.99   17.99</time>
   <time name="total">   18.35   18.34</time>
   <energy>
    <i name="e_fr_energy">   -968.52394188 </i>
    <i name="e_wo_entrp">   -968.67449496 </i>
    <i name="e_0_energy">   -968.57412624 </i>
   </energy>
  </scstep>
  <scstep>
   <time name="dav">   12.78   12.78</time>
   <time name="total">   13.14   13.14</time>
   <energy>
    <i name="e_fr_energy">   -968.52475282 </i>
    <i name="e_wo_entrp">   -968.67549724 </i>
    <i name="e_0_energy">   -968.57500096 </i>
   </energy>
  </scstep>
  <scstep>
   <time name="dav">   15.98   15.97</time>
   <time name="total">   16.34   16.34</time>
   <energy>
    <i name="e_fr_energy">   -968.52812099 </i>
    <i name="e_wo_entrp">   -968.67912665 </i>
    <i name="e_0_energy">   -968.57845621 </i>
   </energy>
  </scstep>
  <scstep>
   <time name="dav">   15.06   15.06</time>
   <time name="total">   15.42   15.42</time>
   <energy>
    <i name="e_fr_energy">   -968.52914265 </i>
    <i name="e_wo_entrp">   -968.68026612 </i>
    <i name="e_0_energy">   -968.57951714 </i>
   </energy>
  </scstep>
  <scstep>
   <time name="dav">   14.40   14.40</time>
   <time name="total">   14.77   14.76</time>
   <energy>
    <i name="e_fr_energy">   -968.53017551 </i>
    <i name="e_wo_entrp">   -968.68142450 </i>
    <i name="e_0_energy">   -968.58059184 </i>
   </energy>
  </scstep>
  <scstep>
   <time name="dav">   14.56   14.55</time>
   <time name="total">   14.92   14.92</time>
   <energy>
    <i name="e_fr_energy">   -968.53160425 </i>
    <i name="e_wo_entrp">   -968.68290128 </i>
    <i name="e_0_energy">   -968.58203659 </i>
   </energy>
  </scstep>
  <scstep>
   <time name="dav">   14.23   14.23</time>
   <time name="total">   14.60   14.59</time>
   <energy>
    <i name="e_fr_energy">   -968.53229438 </i>
    <i name="e_wo_entrp">   -968.68367312 </i>
    <i name="e_0_energy">   -968.58275396 </i>
   </energy>
  </scstep>
  <scstep>
   <time name="dav">   14.27   14.27</time>
   <time name="total">   14.63   14.63</time>
   <energy>
    <i name="e_fr_energy">   -968.53299135 </i>
    <i name="e_wo_entrp">   -968.68432289 </i>
    <i name="e_0_energy">   -968.58343520 </i>
   </energy>
  </scstep>
  <scstep>
   <time name="dav">   11.42   11.41</time>
   <time name="total">   11.78   11.78</time>
   <energy>
    <i name="e_fr_energy">   -968.53319697 </i>
    <i name="e_wo_entrp">   -968.68452346 </i>
    <i name="e_0_energy">   -968.58363914 </i>
   </energy>
  </scstep>
  <scstep>
   <time name="dav">   10.68   10.68</time>
   <time name="total">   11.04   11.04</time>
   <energy>
    <i name="e_fr_energy">   -968.53330460 </i>
    <i name="e_wo_entrp">   -968.68463926 </i>
    <i name="e_0_energy">   -968.58374949 </i>
   </energy>
  </scstep>
  <scstep>
   <time name="dav">   10.10   10.10</time>
   <time name="total">   10.17   10.17</time>
   <energy>
    <i name="alphaZ">    -17.01491454 </i>
    <i name="ewald"> 477211.25223489 </i>
    <i name="hartreedc">-489224.73645732 </i>
    <i name="XCdc">  -6102.91170097 </i>
    <i name="pawpsdc">  40961.55578125 </i>
    <i name="pawaedc"> -33515.69557378 </i>
    <i name="eentropy">      0.15133141 </i>
    <i name="bandstr">  -3190.70887949 </i>
    <i name="atom">  12909.57480638 </i>
    <i name="e_fr_energy">   -968.53337218 </i>
    <i name="e_wo_entrp">   -968.68470359 </i>
    <i name="e_0_energy">   -968.58381598 </i>
   </energy>
  </scstep>
  <structure>
   <crystal>
    <varray name="basis" >
     <v>      11.45512986       0.00000000       0.00000000 </v>
     <v>       0.00000000      17.18269478       0.00000000 </v>
     <v>       0.00000000       0.00000000      58.22500000 </v>
    </varray>
    <i name="volume">  11460.42675000 </i>
    <varray name="rec_basis" >
     <v>       0.08729713       0.00000000       0.00000000 </v>
     <v>       0.00000000       0.05819809       0.00000000 </v>
     <v>       0.00000000       0.00000000       0.01717475 </v>
    </varray>
   </crystal>
   <varray name="positions" >
    <v>       0.11258043       0.07282645       0.34531242 </v>
    <v>       0.36130483       0.08094457       0.33988200 </v>
    <v>       0.61505055       0.08159473       0.34651658 </v>
    <v>       0.86810602       0.08487685       0.34120106 </v>
    <v>       0.10970015       0.25162356       0.34319530 </v>
    <v>       0.37264916       0.25191258       0.34490803 </v>
    <v>       0.61329023       0.24965830       0.34310627 </v>
    <v>       0.87165368       0.25117588       0.34540470 </v>
    <v>       0.11682457       0.42224058       0.34199661 </v>
    <v>       0.36977238       0.41672669       0.34256279 </v>
    <v>       0.61293002       0.41240164       0.34300591 </v>
    <v>       0.86031079       0.41448195       0.34271201 </v>
    <v>       0.11426852       0.58836818       0.34213121 </v>
    <v>       0.35312878       0.58106813       0.34189873 </v>
    <v>       0.60700874       0.58501342       0.34154811 </v>
    <v>       0.85764284       0.58919102       0.34336850 </v>
    <v>       0.11337519       0.74986874       0.34350708 </v>
    <v>       0.35716515       0.73964513       0.34338774 </v>
    <v>       0.61816166       0.74627960       0.34352918 </v>
    <v>       0.85655861       0.75320303       0.34242763 </v>
    <v>       0.11092473       0.90969957       0.34286397 </v>
    <v>       0.36661158       0.90932035       0.34442914 </v>
    <v>       0.61564338       0.91254767       0.34321676 </v>
    <v>       0.85733453       0.92155176       0.34271055 </v>
    <v>       0.99911577       0.99959886       0.37998055 </v>
    <v>       0.25036297       0.99827064       0.37898436 </v>
    <v>       0.49155437       0.99893966       0.37869823 </v>
    <v>       0.74728513       0.00187911       0.37970050 </v>
    <v>       0.99265011       0.16284631       0.37904736 </v>
    <v>       0.24806817       0.16979414       0.37664627 </v>
    <v>       0.49273475       0.16676804       0.37892244 </v>
    <v>       0.74768756       0.16749984       0.37856505 </v>
    <v>       0.99949843       0.32818191       0.37995539 </v>
    <v>       0.24869101       0.33782104       0.37625645 </v>
    <v>       0.49833814       0.34038581       0.38014879 </v>
    <v>       0.74202723       0.33489938       0.37886697 </v>
    <v>       0.99582283       0.49110390       0.37928486 </v>
    <v>       0.25297282       0.49961414       0.37728236 </v>
    <v>       0.48544433       0.50141797       0.37614909 </v>
    <v>       0.74441093       0.50223540       0.37787505 </v>
    <v>       0.99098916       0.66228484       0.37844413 </v>
    <v>       0.24508450       0.66427976       0.37914597 </v>
    <v>       0.49098718       0.66247428       0.37675249 </v>
    <v>       0.74109986       0.66850291       0.37805589 </v>
    <v>       0.98915569       0.83095043       0.37954425 </v>
    <v>       0.24372971       0.83203651       0.37873924 </v>
    <v>       0.49130180       0.82624517       0.37818292 </v>
    <v>       0.73238145       0.83520577       0.37713966 </v>
    <v>       0.11137543       0.08274823       0.41263848 </v>
    <v>       0.36580711       0.08027000       0.41254386 </v>
    <v>       0.61214016       0.08805664       0.41223674 </v>
    <v>       0.86972110       0.08217445       0.41490531 </v>
    <v>       0.12182322       0.24544600       0.41226247 </v>
    <v>       0.37073543       0.25470316       0.41177059 </v>
    <v>       0.62253717       0.25237292       0.41157958 </v>
    <v>       0.86087525       0.24968951       0.41230450 </v>
    <v>       0.12303494       0.41169423       0.41175562 </v>
    <v>       0.36027953       0.41570158       0.41281945 </v>
    <v>       0.61624540       0.42151635       0.41168860 </v>
    <v>       0.87047134       0.41593279       0.41176356 </v>
    <v>       0.11528877       0.57505825       0.41244958 </v>
    <v>       0.37410966       0.58099456       0.41286344 </v>
    <v>       0.61992046       0.58268758       0.41120460 </v>
    <v>       0.87083195       0.58055971       0.41227549 </v>
    <v>       0.11782645       0.75066473       0.41272224 </v>
    <v>       0.37135846       0.74607716       0.41456273 </v>
    <v>       0.62048362       0.74749760       0.41330437 </v>
    <v>       0.87218514       0.74123830       0.41144072 </v>
    <v>       0.12206777       0.91145624       0.41135152 </v>
    <v>       0.37967551       0.91173215       0.41326081 </v>
    <v>       0.61806642       0.91720670       0.41250365 </v>
    <v>       0.87042530       0.91027177       0.41483732 </v>
    <v>       0.00110506       0.99880368       0.45020817 </v>
    <v>       0.24093291       0.00021327       0.44478860 </v>
    <v>       0.49459769       0.00013223       0.44755153 </v>
    <v>       0.73874770       0.00309105       0.44850327 </v>
    <v>       0.99538411       0.16834639       0.44682633 </v>
    <v>       0.25166898       0.17654751       0.44729431 </v>
    <v>       0.50623061       0.16669821       0.44881847 </v>
[...]
       <r>    -0.6388   116.1779   676.0344 </r>
       <r>    -0.5808   121.5564   683.0878 </r>
       <r>    -0.5228   124.3685   690.3043 </r>
       <r>    -0.4647   122.1621   697.3929 </r>
       <r>    -0.4067   113.9312   704.0038 </r>
       <r>    -0.3487   101.5033   709.8935 </r>
       <r>    -0.2907    88.2915   715.0167 </r>
       <r>    -0.2326    77.9638   719.5406 </r>
       <r>    -0.1746    73.1382   723.7844 </r>
       <r>    -0.1166    73.3804   728.0424 </r>
       <r>    -0.0586    74.8986   732.3884 </r>
       <r>    -0.0005    74.1206   736.6893 </r>
       <r>     0.0575    71.9402   740.8636 </r>
       <r>     0.1155    73.0743   745.1038 </r>
       <r>     0.1735    80.5866   749.7799 </r>
       <r>     0.2316    92.0902   755.1235 </r>
       <r>     0.2896   102.0391   761.0443 </r>
       <r>     0.3476   106.5871   767.2291 </r>
       <r>     0.4056   105.1649   773.3313 </r>
       <r>     0.4637    98.7422   779.0609 </r>
       <r>     0.5217    88.9058   784.2197 </r>
       <r>     0.5797    78.8806   788.7968 </r>
       <r>     0.6377    73.7384   793.0755 </r>
       <r>     0.6958    78.0869   797.6065 </r>
       <r>     0.7538    92.9352   802.9991 </r>
       <r>     0.8118   114.6198   809.6500 </r>
       <r>     0.8698   136.7419   817.5845 </r>
       <r>     0.9279   153.1639   826.4719 </r>
       <r>     0.9859   159.7443   835.7411 </r>
       <r>     1.0439   155.2047   844.7469 </r>
       <r>     1.1019   142.5925   853.0209 </r>
       <r>     1.1600   129.8065   860.5530 </r>
       <r>     1.2180   125.9865   867.8634 </r>
       <r>     1.2760   134.6212   875.6749 </r>
       <r>     1.3340   149.3607   884.3416 </r>
       <r>     1.3921   157.6854   893.4914 </r>
       <r>     1.4501   150.7197   902.2370 </r>
       <r>     1.5081   131.0405   909.8406 </r>
       <r>     1.5662   110.9385   916.2779 </r>
       <r>     1.6242   102.0056   922.1968 </r>
       <r>     1.6822   105.6919   928.3296 </r>
       <r>     1.7402   113.7743   934.9314 </r>
       <r>     1.7983   117.2673   941.7359 </r>
       <r>     1.8563   113.9426   948.3475 </r>
       <r>     1.9143   107.8923   954.6080 </r>
       <r>     1.9723   104.0927   960.6480 </r>
       <r>     2.0304   104.3508   966.7030 </r>
       <r>     2.0884   106.4961   972.8825 </r>
       <r>     2.1464   105.2571   978.9901 </r>
       <r>     2.2044    94.8168   984.4919 </r>
       <r>     2.2625    73.2479   988.7421 </r>
       <r>     2.3205    45.3307   991.3725 </r>
       <r>     2.3785    19.8409   992.5238 </r>
       <r>     2.4365     3.3216   992.7165 </r>
       <r>     2.4946    -3.5202   992.5122 </r>
       <r>     2.5526    -4.2049   992.2682 </r>
       <r>     2.6106    -2.7073   992.1111 </r>
       <r>     2.6686    -1.2686   992.0375 </r>
       <r>     2.7267    -0.4663   992.0105 </r>
       <r>     2.7847    -0.1386   992.0024 </r>
       <r>     2.8427    -0.0338   992.0005 </r>
       <r>     2.9007    -0.0068   992.0001 </r>
       <r>     2.9588    -0.0012   992.0000 </r>
       <r>     3.0168    -0.0002   992.0000 </r>
       <r>     3.0748    -0.0000   992.0000 </r>
       <r>     3.1328    -0.0000   992.0000 </r>
       <r>     3.1909    -0.0000   992.0000 </r>
       <r>     3.2489    -0.0000   992.0000 </r>
       <r>     3.3069    -0.0000   992.0000 </r>
       <r>     3.3649    -0.0000   992.0000 </r>
       <r>     3.4230    -0.0000   992.0000 </r>
       <r>     3.4810    -0.0000   992.0000 </r>
       <r>     3.5390     0.0000   992.0000 </r>
       <r>     3.5970     0.0000   992.0000 </r>
       <r>     3.6551     0.0000   992.0000 </r>
       <r>     3.7131     0.0000   992.0000 </r>
       <r>     3.7711     0.0000   992.0000 </r>
       <r>     3.8291     0.0000   992.0000 </r>
       <r>     3.8872     0.0000   992.0000 </r>
       <r>     3.9452     0.0000   992.0000 </r>
       <r>     4.0032     0.0000   992.0000 </r>
       <r>     4.0612     0.0000   992.0000 </r>
       <r>     4.1193     0.0000   992.0000 </r>
       <r>     4.1773     0.0000   992.0000 </r>
       <r>     4.2353     0.0000   992.0000 </r>
      </set>
     </set>
    </array>
   </total>
  </dos>
 </calculation>
 <structure name="finalpos" >
  <crystal>
   <varray name="basis" >
    <v>      11.45512986       0.00000000       0.00000000 </v>
    <v>       0.00000000      17.18269478       0.00000000 </v>
    <v>       0.00000000       0.00000000      58.22500000 </v>
   </varray>
   <i name="volume">  11460.42675000 </i>
   <varray name="rec_basis" >
    <v>       0.08729713       0.00000000       0.00000000 </v>
    <v>       0.00000000       0.05819809       0.00000000 </v>
    <v>       0.00000000       0.00000000       0.01717475 </v>
   </varray>
  </crystal>
  <varray name="positions" >
   <v>       0.11258043       0.07282645       0.34531242 </v>
   <v>       0.36130483       0.08094457       0.33988200 </v>
   <v>       0.61505055       0.08159473       0.34651658 </v>
   <v>       0.86810602       0.08487685       0.34120106 </v>
   <v>       0.10970015       0.25162356       0.34319530 </v>
   <v>       0.37264916       0.25191258       0.34490803 </v>
   <v>       0.61329023       0.24965830       0.34310627 </v>
   <v>       0.87165368       0.25117588       0.34540470 </v>
   <v>       0.11682457       0.42224058       0.34199661 </v>
   <v>       0.36977238       0.41672669       0.34256279 </v>
   <v>       0.61293002       0.41240164       0.34300591 </v>
   <v>       0.86031079       0.41448195       0.34271201 </v>
   <v>       0.11426852       0.58836818       0.34213121 </v>
   <v>       0.35312878       0.58106813       0.34189873 </v>
   <v>       0.60700874       0.58501342       0.34154811 </v>
   <v>       0.85764284       0.58919102       0.34336850 </v>
   <v>       0.11337519       0.74986874       0.34350708 </v>
   <v>       0.35716515       0.73964513       0.34338774 </v>
   <v>       0.61816166       0.74627960       0.34352918 </v>
   <v>       0.85655861       0.75320303       0.34242763 </v>
   <v>       0.11092473       0.90969957       0.34286397 </v>
   <v>       0.36661158       0.90932035       0.34442914 </v>
   <v>       0.61564338       0.91254767       0.34321676 </v>
   <v>       0.85733453       0.92155176       0.34271055 </v>
   <v>       0.99911577       0.99959886       0.37998055 </v>
   <v>       0.25036297       0.99827064       0.37898436 </v>
   <v>       0.49155437       0.99893966       0.37869823 </v>
   <v>       0.74728513       0.00187911       0.37970050 </v>
   <v>       0.99265011       0.16284631       0.37904736 </v>
   <v>       0.24806817       0.16979414       0.37664627 </v>
   <v>       0.49273475       0.16676804       0.37892244 </v>
   <v>       0.74768756       0.16749984       0.37856505 </v>
   <v>       0.99949843       0.32818191       0.37995539 </v>
   <v>       0.24869101       0.33782104       0.37625645 </v>
   <v>       0.49833814       0.34038581       0.38014879 </v>
   <v>       0.74202723       0.33489938       0.37886697 </v>
   <v>       0.99582283       0.49110390       0.37928486 </v>
   <v>       0.25297282       0.49961414       0.37728236 </v>
   <v>       0.48544433       0.50141797       0.37614909 </v>
   <v>       0.74441093       0.50223540       0.37787505 </v>
   <v>       0.99098916       0.66228484       0.37844413 </v>
   <v>       0.24508450       0.66427976       0.37914597 </v>
   <v>       0.49098718       0.66247428       0.37675249 </v>
   <v>       0.74109986       0.66850291       0.37805589 </v>
   <v>       0.98915569       0.83095043       0.37954425 </v>
   <v>       0.24372971       0.83203651       0.37873924 </v>
   <v>       0.49130180       0.82624517       0.37818292 </v>
   <v>       0.73238145       0.83520577       0.37713966 </v>
   <v>       0.11137543       0.08274823       0.41263848 </v>
   <v>       0.36580711       0.08027000       0.41254386 </v>
   <v>       0.61214016       0.08805664       0.41223674 </v>
   <v>       0.86972110       0.08217445       0.41490531 </v>
   <v>       0.12182322       0.24544600       0.41226247 </v>
   <v>       0.37073543       0.25470316       0.41177059 </v>
   <v>       0.62253717       0.25237292       0.41157958 </v>
   <v>       0.86087525       0.24968951       0.41230450 </v>
   <v>       0.12303494       0.41169423       0.41175562 </v>
   <v>       0.36027953       0.41570158       0.41281945 </v>
   <v>       0.61624540       0.42151635       0.41168860 </v>
   <v>       0.87047134       0.41593279       0.41176356 </v>
   <v>       0.11528877       0.57505825       0.41244958 </v>
   <v>       0.37410966       0.58099456       0.41286344 </v>
   <v>       0.61992046       0.58268758       0.41120460 </v>
   <v>       0.87083195       0.58055971       0.41227549 </v>
   <v>       0.11782645       0.75066473       0.41272224 </v>
   <v>       0.37135846       0.74607716       0.41456273 </v>
   <v>       0.62048362       0.74749760       0.41330437 </v>
   <v>       0.87218514       0.74123830       0.41144072 </v>
   <v>       0.12206777       0.91145624       0.41135152 </v>
   <v>       0.37967551       0.91173215       0.41326081 </v>
   <v>       0.61806642       0.91720670       0.41250365 </v>
   <v>       0.87042530       0.91027177       0.41483732 </v>
   <v>       0.00110506       0.99880368       0.45020817 </v>
   <v>       0.24093291       0.00021327       0.44478860 </v>
   <v>       0.49459769       0.00013223       0.44755153 </v>
   <v>       0.73874770       0.00309105       0.44850327 </v>
   <v>       0.99538411       0.16834639       0.44682633 </v>
   <v>       0.25166898       0.17654751       0.44729431 </v>
   <v>       0.50623061       0.16669821       0.44881847 </v>
   <v>       0.74713757       0.17262446       0.44634656 </v>
   <v>       0.99528007       0.33625672       0.44587696 </v>
   <v>       0.24258047       0.33830747       0.44752961 </v>
   <v>       0.49353509       0.33152911       0.44700598 </v>
   <v>       0.74043585       0.33682632       0.44639474 </v>
   <v>       0.99421888       0.50239157       0.44647410 </v>
   <v>       0.25094393       0.49978910       0.44561475 </v>
   <v>       0.50066308       0.49953181       0.44532984 </v>
   <v>       0.74898920       0.50427358       0.44742062 </v>
   <v>       0.00069924       0.66565395       0.44638246 </v>
   <v>       0.25046325       0.66556069       0.44790011 </v>
   <v>       0.50317662       0.66296922       0.44748794 </v>
   <v>       0.76229557       0.66670606       0.44796561 </v>
   <v>       0.99424375       0.83097524       0.44756515 </v>
   <v>       0.24621509       0.83163325       0.44726985 </v>
   <v>       0.49626742       0.82990970       0.44811316 </v>
   <v>       0.75390712       0.83446143       0.44637224 </v>
   <v>       0.12289184       0.09192976       0.48469875 </v>
   <v>       0.37509688       0.08970312       0.48241126 </v>
   <v>       0.63305557       0.07816276       0.48401761 </v>
   <v>       0.86795657       0.09060721       0.48197685 </v>
   <v>       0.13426791       0.25535711       0.48258514 </v>
   <v>       0.37274068       0.24908496       0.48318993 </v>
   <v>       0.62639817       0.25160964       0.48398105 </v>
   <v>       0.86323710       0.26109676       0.48398471 </v>
   <v>       0.12463445       0.41297215       0.48255745 </v>
   <v>       0.37303072       0.42358720       0.48142181 </v>
   <v>       0.63039731       0.42014928       0.48111339 </v>
   <v>       0.87741543       0.41997342       0.48269040 </v>
   <v>       0.11867802       0.57429297       0.48317822 </v>
   <v>       0.37350859       0.58534820       0.48176903 </v>
   <v>       0.61089728       0.58899525       0.48134712 </v>
   <v>       0.86393764       0.58916499       0.48477485 </v>
   <v>       0.12786436       0.74368726       0.48109316 </v>
   <v>       0.37319052       0.75140083       0.48187562 </v>
   <v>       0.62727465       0.75081626       0.48235547 </v>
   <v>       0.87700735       0.75705762       0.48393593 </v>
   <v>       0.13680359       0.91712250       0.48272046 </v>
   <v>       0.36809404       0.92148251       0.48362711 </v>
   <v>       0.62194794       0.91424992       0.48251876 </v>
   <v>       0.87176835       0.91627582       0.48266169 </v>
   <v>       0.00105952       0.00015562       0.51689401 </v>
   <v>       0.24434096       0.99762620       0.51822589 </v>
   <v>       0.49425377       0.00186177       0.51663546 </v>
   <v>       0.74117964       0.99521749       0.51673989 </v>
   <v>       0.98292800       0.16461140       0.51535544 </v>
   <v>       0.23736984       0.17215751       0.51762522 </v>
   <v>       0.49813771       0.16315886       0.51592994 </v>
   <v>       0.73342943       0.17139350       0.51852031 </v>
   <v>       0.98844374       0.33468857       0.51902701 </v>
   <v>       0.24344823       0.33703394       0.51808451 </v>
   <v>       0.49034033       0.33368973       0.51830457 </v>
   <v>       0.74103719       0.33668918       0.51898634 </v>
   <v>       0.98213572       0.49762846       0.51761669 </v>
   <v>       0.23537615       0.50235564       0.51854277 </v>
   <v>       0.49423192       0.49665254       0.51827040 </v>
   <v>       0.73090195       0.49900946       0.51680844 </v>
   <v>       0.99350303       0.66563495       0.51748638 </v>
   <v>       0.23882383       0.66427582       0.51505415 </v>
   <v>       0.49158754       0.66423626       0.51558437 </v>
   <v>       0.72926433       0.66424385       0.51783972 </v>
   <v>       0.99812536       0.83256312       0.51682957 </v>
   <v>       0.24198596       0.82719713       0.51684350 </v>
   <v>       0.48855098       0.83722631       0.51725763 </v>
   <v>       0.74154327       0.83284749       0.51659493 </v>
   <v>       0.10697747       0.08072373       0.55176334 </v>
   <v>       0.36101558       0.08489317       0.55145697 </v>
   <v>       0.61274506       0.08266874       0.55129233 </v>
   <v>       0.87036124       0.08562295       0.55115722 </v>
   <v>       0.11510232       0.24678454       0.55128128 </v>
   <v>       0.36202829       0.24577054       0.55154401 </v>
   <v>       0.62382831       0.25065947       0.55368921 </v>
   <v>       0.85821878       0.25536672       0.55308370 </v>
   <v>       0.12246231       0.41097552       0.55300202 </v>
   <v>       0.36590592       0.41983010       0.55245742 </v>
   <v>       0.62258020       0.42141724       0.55213786 </v>
   <v>       0.87071400       0.41879809       0.55380343 </v>
   <v>       0.11490454       0.58093472       0.55431924 </v>
   <v>       0.37315903       0.57910474       0.55062298 </v>
   <v>       0.63179498       0.58436616       0.55283239 </v>
   <v>       0.87058891       0.57823343       0.55329296 </v>
   <v>       0.12235857       0.74850712       0.55055510 </v>
   <v>       0.37231392       0.74967596       0.54976007 </v>
   <v>       0.61685319       0.75160075       0.55181992 </v>
   <v>       0.86185329       0.74381325       0.55081169 </v>
   <v>       0.11739871       0.91794880       0.55165631 </v>
   <v>       0.36777195       0.91570658       0.55160319 </v>
   <v>       0.61688060       0.91826501       0.55200228 </v>
   <v>       0.87291668       0.91969903       0.54903737 </v>
   <v>       0.98905253       0.99779667       0.58499607 </v>
   <v>       0.24626794       0.99309385       0.58587577 </v>
   <v>       0.49611889       0.99672201       0.58787941 </v>
   <v>       0.75412535       0.99205792       0.58350819 </v>
   <v>       0.99146738       0.16447564       0.58599935 </v>
   <v>       0.24443634       0.15917516       0.58781177 </v>
   <v>       0.49720379       0.16453390       0.58536011 </v>
   <v>       0.74358896       0.16139768       0.58638826 </v>
   <v>       0.99054560       0.33829720       0.58717346 </v>
   <v>       0.25324087       0.33754552       0.58549600 </v>
   <v>       0.49835285       0.33236621       0.58558631 </v>
   <v>       0.74941453       0.33240640       0.58690978 </v>
   <v>       0.99039024       0.49867933       0.58987778 </v>
   <v>       0.24254320       0.49923866       0.58883778 </v>
   <v>       0.49640659       0.50434549       0.58551905 </v>
   <v>       0.73768024       0.49668306       0.58586287 </v>
   <v>       0.98383953       0.66821878       0.58902695 </v>
   <v>       0.25378708       0.65962535       0.58512015 </v>
   <v>       0.50075899       0.66397100       0.58791449 </v>
   <v>       0.74275764       0.66480198       0.58786971 </v>
   <v>       0.00120164       0.82672031       0.58517322 </v>
   <v>       0.25415883       0.82557665       0.58649420 </v>
   <v>       0.48647093       0.82569351       0.58601864 </v>
   <v>       0.74832169       0.83368195       0.58722888 </v>
   <v>       0.11841826       0.07800435       0.62110768 </v>
   <v>       0.36538171       0.07385070       0.62105452 </v>
   <v>       0.61247183       0.08499423       0.62112826 </v>
   <v>       0.86599366       0.08458555       0.61878601 </v>
   <v>       0.12122710       0.25785500       0.62082423 </v>
   <v>       0.36609068       0.24442901       0.62178418 </v>
   <v>       0.61401738       0.25867650       0.62224095 </v>
   <v>       0.87361820       0.24787224       0.62016026 </v>
   <v>       0.12169376       0.41493209       0.62168320 </v>
   <v>       0.37572023       0.40837275       0.62116352 </v>
   <v>       0.61987141       0.41359468       0.62203704 </v>
   <v>       0.86537347       0.41696706       0.62165748 </v>
   <v>       0.12935330       0.58648933       0.62069760 </v>
   <v>       0.37065822       0.57328098       0.62443335 </v>
   <v>       0.61805844       0.57629249       0.62219153 </v>
   <v>       0.86334673       0.58660945       0.62358008 </v>
   <v>       0.11788035       0.75059131       0.62072095 </v>
   <v>       0.37119572       0.74102981       0.62280439 </v>
   <v>       0.62665239       0.74154059       0.62141754 </v>
   <v>       0.87634918       0.74633698       0.62195756 </v>
   <v>       0.11467231       0.91014094       0.62009063 </v>
   <v>       0.36556470       0.90478725       0.62092674 </v>
   <v>       0.61585779       0.91604935       0.61973920 </v>
   <v>       0.86234798       0.91679322       0.62022610 </v>
   <v>       0.99837329       0.99674950       0.65657016 </v>
   <v>       0.24390954       0.99422446       0.65634810 </v>
   <v>       0.49435772       0.99821474       0.65395375 </v>
   <v>       0.73595048       0.00342546       0.65561422 </v>
   <v>       0.99181707       0.16470511       0.65565131 </v>
   <v>       0.24593986       0.15834888       0.65319582 </v>
   <v>       0.49306414       0.16151648       0.65338267 </v>
   <v>       0.74437700       0.16284949       0.65255981 </v>
   <v>       0.99853382       0.32701443       0.65680805 </v>
   <v>       0.23679059       0.33121151       0.65863142 </v>
   <v>       0.49548184       0.32712247       0.65799714 </v>
   <v>       0.75113633       0.32971464       0.65504179 </v>
   <v>       0.00040029       0.50413615       0.65464251 </v>
   <v>       0.23610411       0.49528837       0.65873906 </v>
   <v>       0.49739743       0.49275337       0.65653390 </v>
   <v>       0.75347117       0.49702875       0.65682825 </v>
   <v>       0.00585465       0.66988459       0.65482725 </v>
   <v>       0.24172449       0.66931245       0.65566201 </v>
   <v>       0.48849157       0.66386916       0.65682585 </v>
   <v>       0.74409838       0.66787418       0.65757174 </v>
   <v>       0.98745345       0.83184374       0.65616106 </v>
   <v>       0.24979284       0.82655215       0.65861937 </v>
   <v>       0.50126005       0.82880944       0.65314073 </v>
   <v>       0.74881554       0.83226836       0.65762997 </v>
  </varray>
 </structure>
</modeling>
