unknown system                          
           1
    11.455130    0.000000    0.000000
     0.000000   17.182695    0.000000
     0.000000    0.000000   58.225000
   Al
 240
Direct configuration=     1
   0.11258043  0.07282645  0.34531242
   0.36130483  0.08094457  0.33988200
   0.61505055  0.08159473  0.34651658
   0.86810602  0.08487685  0.34120106
   0.10970015  0.25162356  0.34319530
   0.37264916  0.25191258  0.34490803
   0.61329023  0.24965830  0.34310627
   0.87165368  0.25117588  0.34540470
   0.11682457  0.42224058  0.34199661
   0.36977238  0.41672669  0.34256279
   0.61293002  0.41240164  0.34300591
   0.86031079  0.41448195  0.34271201
   0.11426852  0.58836818  0.34213121
   0.35312878  0.58106813  0.34189873
   0.60700874  0.58501342  0.34154811
   0.85764284  0.58919102  0.34336850
   0.11337519  0.74986874  0.34350708
   0.35716515  0.73964513  0.34338774
   0.61816166  0.74627960  0.34352918
   0.85655861  0.75320303  0.34242763
   0.11092473  0.90969957  0.34286397
   0.36661158  0.90932035  0.34442914
   0.61564338  0.91254767  0.34321676
   0.85733453  0.92155176  0.34271055
   0.99911577  0.99959886  0.37998055
   0.25036297  0.99827064  0.37898436
   0.49155437  0.99893966  0.37869823
   0.74728513  0.00187911  0.37970050
   0.99265011  0.16284631  0.37904736
   0.24806817  0.16979414  0.37664627
   0.49273475  0.16676804  0.37892244
   0.74768756  0.16749984  0.37856505
   0.99949843  0.32818191  0.37995539
   0.24869101  0.33782104  0.37625645
   0.49833814  0.34038581  0.38014879
   0.74202723  0.33489938  0.37886697
   0.99582283  0.49110390  0.37928486
   0.25297282  0.49961414  0.37728236
   0.48544433  0.50141797  0.37614909
   0.74441093  0.50223540  0.37787505
   0.99098916  0.66228484  0.37844413
   0.24508450  0.66427976  0.37914597
   0.49098718  0.66247428  0.37675249
   0.74109986  0.66850291  0.37805589
   0.98915569  0.83095043  0.37954425
   0.24372971  0.83203651  0.37873924
   0.49130180  0.82624517  0.37818292
   0.73238145  0.83520577  0.37713966
   0.11137543  0.08274823  0.41263848
   0.36580711  0.08027000  0.41254386
   0.61214016  0.08805664  0.41223674
   0.86972110  0.08217445  0.41490531
   0.12182322  0.24544600  0.41226247
   0.37073543  0.25470316  0.41177059
   0.62253717  0.25237292  0.41157958
   0.86087525  0.24968951  0.41230450
   0.12303494  0.41169423  0.41175562
   0.36027953  0.41570158  0.41281945
   0.61624540  0.42151635  0.41168860
   0.87047134  0.41593279  0.41176356
   0.11528877  0.57505825  0.41244958
   0.37410966  0.58099456  0.41286344
   0.61992046  0.58268758  0.41120460
   0.87083195  0.58055971  0.41227549
   0.11782645  0.75066473  0.41272224
   0.37135846  0.74607716  0.41456273
   0.62048362  0.74749760  0.41330437
   0.87218514  0.74123830  0.41144072
   0.12206777  0.91145624  0.41135152
   0.37967551  0.91173215  0.41326081
   0.61806642  0.91720670  0.41250365
   0.87042530  0.91027177  0.41483732
   0.00110506  0.99880368  0.45020817
   0.24093291  0.00021327  0.44478860
   0.49459769  0.00013223  0.44755153
   0.73874770  0.00309105  0.44850327
   0.99538411  0.16834639  0.44682633
   0.25166898  0.17654751  0.44729431
   0.50623061  0.16669821  0.44881847
   0.74713757  0.17262446  0.44634656
   0.99528007  0.33625672  0.44587696
   0.24258047  0.33830747  0.44752961
   0.49353509  0.33152911  0.44700598
   0.74043585  0.33682632  0.44639474
   0.99421888  0.50239157  0.44647410
   0.25094393  0.49978910  0.44561475
   0.50066308  0.49953181  0.44532984
   0.74898920  0.50427358  0.44742062
   0.00069924  0.66565395  0.44638246
   0.25046325  0.66556069  0.44790011
   0.50317662  0.66296922  0.44748794
   0.76229557  0.66670606  0.44796561
   0.99424375  0.83097524  0.44756515
   0.24621509  0.83163325  0.44726985
   0.49626742  0.82990970  0.44811316
   0.75390712  0.83446143  0.44637224
   0.12289184  0.09192976  0.48469875
   0.37509688  0.08970312  0.48241126
   0.63305557  0.07816276  0.48401761
   0.86795657  0.09060721  0.48197685
   0.13426791  0.25535711  0.48258514
   0.37274068  0.24908496  0.48318993
   0.62639817  0.25160964  0.48398105
   0.86323710  0.26109676  0.48398471
   0.12463445  0.41297215  0.48255745
   0.37303072  0.42358720  0.48142181
   0.63039731  0.42014928  0.48111339
   0.87741543  0.41997342  0.48269040
   0.11867802  0.57429297  0.48317822
   0.37350859  0.58534820  0.48176903
   0.61089728  0.58899525  0.48134712
   0.86393764  0.58916499  0.48477485
   0.12786436  0.74368726  0.48109316
   0.37319052  0.75140083  0.48187562
   0.62727465  0.75081626  0.48235547
   0.87700735  0.75705762  0.48393593
   0.13680359  0.91712250  0.48272046
   0.36809404  0.92148251  0.48362711
   0.62194794  0.91424992  0.48251876
   0.87176835  0.91627582  0.48266169
   0.00105952  0.00015562  0.51689401
   0.24434096  0.99762620  0.51822589
   0.49425377  0.00186177  0.51663546
   0.74117964  0.99521749  0.51673989
   0.98292800  0.16461140  0.51535544
   0.23736984  0.17215751  0.51762522
   0.49813771  0.16315886  0.51592994
   0.73342943  0.17139350  0.51852031
   0.98844374  0.33468857  0.51902701
   0.24344823  0.33703394  0.51808451
   0.49034033  0.33368973  0.51830457
   0.74103719  0.33668918  0.51898634
   0.98213572  0.49762846  0.51761669
   0.23537615  0.50235564  0.51854277
   0.49423192  0.49665254  0.51827040
   0.73090195  0.49900946  0.51680844
   0.99350303  0.66563495  0.51748638
   0.23882383  0.66427582  0.51505415
   0.49158754  0.66423626  0.51558437
   0.72926433  0.66424385  0.51783972
   0.99812536  0.83256312  0.51682957
   0.24198596  0.82719713  0.51684350
   0.48855098  0.83722631  0.51725763
   0.74154327  0.83284749  0.51659493
   0.10697747  0.08072373  0.55176334
   0.36101558  0.08489317  0.55145697
   0.61274506  0.08266874  0.55129233
   0.87036124  0.08562295  0.55115722
   0.11510232  0.24678454  0.55128128
   0.36202829  0.24577054  0.55154401
   0.62382831  0.25065947  0.55368921
   0.85821878  0.25536672  0.55308370
   0.12246231  0.41097552  0.55300202
   0.36590592  0.41983010  0.55245742
   0.62258020  0.42141724  0.55213786
   0.87071400  0.41879809  0.55380343
   0.11490454  0.58093472  0.55431924
   0.37315903  0.57910474  0.55062298
   0.63179498  0.58436616  0.55283239
   0.87058891  0.57823343  0.55329296
   0.12235857  0.74850712  0.55055510
   0.37231392  0.74967596  0.54976007
   0.61685319  0.75160075  0.55181992
   0.86185329  0.74381325  0.55081169
   0.11739871  0.91794880  0.55165631
   0.36777195  0.91570658  0.55160319
   0.61688060  0.91826501  0.55200228
   0.87291668  0.91969903  0.54903737
   0.98905253  0.99779667  0.58499607
   0.24626794  0.99309385  0.58587577
   0.49611889  0.99672201  0.58787941
   0.75412535  0.99205792  0.58350819
   0.99146738  0.16447564  0.58599935
   0.24443634  0.15917516  0.58781177
   0.49720379  0.16453390  0.58536011
   0.74358896  0.16139768  0.58638826
   0.99054560  0.33829720  0.58717346
   0.25324087  0.33754552  0.58549600
   0.49835285  0.33236621  0.58558631
   0.74941453  0.33240640  0.58690978
   0.99039024  0.49867933  0.58987778
   0.24254320  0.49923866  0.58883778
   0.49640659  0.50434549  0.58551905
   0.73768024  0.49668306  0.58586287
   0.98383953  0.66821878  0.58902695
   0.25378708  0.65962535  0.58512015
   0.50075899  0.66397100  0.58791449
   0.74275764  0.66480198  0.58786971
   0.00120164  0.82672031  0.58517322
   0.25415883  0.82557665  0.58649420
   0.48647093  0.82569351  0.58601864
   0.74832169  0.83368195  0.58722888
   0.11841826  0.07800435  0.62110768
   0.36538171  0.07385070  0.62105452
   0.61247183  0.08499423  0.62112826
   0.86599366  0.08458555  0.61878601
   0.12122710  0.25785500  0.62082423
   0.36609068  0.24442901  0.62178418
   0.61401738  0.25867650  0.62224095
   0.87361820  0.24787224  0.62016026
   0.12169376  0.41493209  0.62168320
   0.37572023  0.40837275  0.62116352
   0.61987141  0.41359468  0.62203704
   0.86537347  0.41696706  0.62165748
   0.12935330  0.58648933  0.62069760
   0.37065822  0.57328098  0.62443335
   0.61805844  0.57629249  0.62219153
   0.86334673  0.58660945  0.62358008
   0.11788035  0.75059131  0.62072095
   0.37119572  0.74102981  0.62280439
   0.62665239  0.74154059  0.62141754
   0.87634918  0.74633698  0.62195756
   0.11467231  0.91014094  0.62009063
   0.36556470  0.90478725  0.62092674
   0.61585779  0.91604935  0.61973920
   0.86234798  0.91679322  0.62022610
   0.99837329  0.99674950  0.65657016
   0.24390954  0.99422446  0.65634810
   0.49435772  0.99821474  0.65395375
   0.73595048  0.00342546  0.65561422
   0.99181707  0.16470511  0.65565131
   0.24593986  0.15834888  0.65319582
   0.49306414  0.16151648  0.65338267
   0.74437700  0.16284949  0.65255981
   0.99853382  0.32701443  0.65680805
   0.23679059  0.33121151  0.65863142
   0.49548184  0.32712247  0.65799714
   0.75113633  0.32971464  0.65504179
   0.00040029  0.50413615  0.65464251
   0.23610411  0.49528837  0.65873906
   0.49739743  0.49275337  0.65653390
   0.75347117  0.49702875  0.65682825
   0.00585465  0.66988459  0.65482725
   0.24172449  0.66931245  0.65566201
   0.48849157  0.66386916  0.65682585
   0.74409838  0.66787418  0.65757174
   0.98745345  0.83184374  0.65616106
   0.24979284  0.82655215  0.65861937
   0.50126005  0.82880944  0.65314073
   0.74881554  0.83226836  0.65762997
