 144 144   0   0
  0.6851461E+02  0.1145513E-08  0.1718270E-08  0.5012500E-08  0.5000000E-15
  1.000000000000000E-004
  CAR 
 unknown system                          
      3.09505289    -14.35094953  301     -1.51860566      1.00000000
    -14.351  0.0000E+00  0.0000E+00
    -14.293  0.0000E+00  0.0000E+00
    -14.235  0.0000E+00  0.0000E+00
    -14.176  0.0000E+00  0.0000E+00
    -14.118  0.0000E+00  0.0000E+00
    -14.060  0.0000E+00  0.0000E+00
    -14.002 -0.2022E-27 -0.1176E-28
    -13.944 -0.2159E-25 -0.1268E-26
    -13.886 -0.1960E-23 -0.1152E-24
    -13.828 -0.1499E-21 -0.8835E-23
    -13.769 -0.9668E-20 -0.5711E-21
    -13.711 -0.5253E-18 -0.3112E-19
    -13.653 -0.2404E-16 -0.1429E-17
    -13.595 -0.9267E-15 -0.5532E-16
    -13.537 -0.3007E-13 -0.1804E-14
    -13.479 -0.7946E-12 -0.4801E-13
    -13.420 -0.1822E-10 -0.1108E-11
    -13.362 -0.3504E-09 -0.2149E-10
    -13.304 -0.5658E-08 -0.3505E-09
    -13.246 -0.7663E-07 -0.4807E-08
    -13.188 -0.8692E-06 -0.5535E-07
    -13.130 -0.8243E-05 -0.5347E-06
    -13.072 -0.6523E-04 -0.4328E-05
    -13.013 -0.4294E-03 -0.2930E-04
    -12.955 -0.2341E-02 -0.1655E-03
    -12.897 -0.1051E-01 -0.7767E-03
    -12.839 -0.3848E-01 -0.3014E-02
    -12.781 -0.1130E+00 -0.9585E-02
    -12.723 -0.2577E+00 -0.2457E-01
    -12.665 -0.4221E+00 -0.4912E-01
    -12.606 -0.3615E+00 -0.7014E-01
    -12.548  0.3926E+00 -0.4730E-01
    -12.490  0.2246E+01  0.8328E-01
    -12.432  0.4973E+01  0.3725E+00
    -12.374  0.7442E+01  0.8053E+00
    -12.316  0.8212E+01  0.1283E+01
    -12.257  0.6680E+01  0.1671E+01
    -12.199  0.3653E+01  0.1884E+01
    -12.141  0.8069E+00  0.1931E+01
    -12.083 -0.2280E+00  0.1917E+01
    -12.025  0.1563E+01  0.2008E+01
    -11.967  0.6208E+01  0.2369E+01
    -11.909  0.1238E+02  0.3089E+01
    -11.850  0.1769E+02  0.4118E+01
    -11.792  0.1993E+02  0.5277E+01
    -11.734  0.1843E+02  0.6349E+01
    -11.676  0.1411E+02  0.7169E+01
    -11.618  0.8569E+01  0.7668E+01
    -11.560  0.3408E+01  0.7866E+01
    -11.501  0.1829E+00  0.7877E+01
    -11.443  0.4845E+00  0.7905E+01
    -11.385  0.5431E+01  0.8221E+01
    -11.327  0.1444E+02  0.9060E+01
    -11.269  0.2433E+02  0.1048E+02
    -11.211  0.3028E+02  0.1224E+02
    -11.153  0.2889E+02  0.1392E+02
    -11.094  0.2078E+02  0.1512E+02
    -11.036  0.1032E+02  0.1572E+02
    -10.978  0.2981E+01  0.1590E+02
    -10.920  0.2602E+01  0.1605E+02
    -10.862  0.1004E+02  0.1663E+02
    -10.804  0.2285E+02  0.1796E+02
    -10.745  0.3595E+02  0.2005E+02
    -10.687  0.4402E+02  0.2261E+02
    -10.629  0.4434E+02  0.2519E+02
    -10.571  0.3824E+02  0.2741E+02
    -10.513  0.2965E+02  0.2914E+02
    -10.455  0.2236E+02  0.3044E+02
    -10.397  0.1805E+02  0.3149E+02
    -10.338  0.1684E+02  0.3247E+02
    -10.280  0.1910E+02  0.3358E+02
    -10.222  0.2563E+02  0.3507E+02
    -10.164  0.3529E+02  0.3712E+02
    -10.106  0.4331E+02  0.3964E+02
    -10.048  0.4395E+02  0.4220E+02
     -9.989  0.3558E+02  0.4427E+02
     -9.931  0.2273E+02  0.4559E+02
     -9.873  0.1250E+02  0.4631E+02
     -9.815  0.9042E+01  0.4684E+02
     -9.757  0.1130E+02  0.4750E+02
     -9.699  0.1527E+02  0.4838E+02
     -9.641  0.1785E+02  0.4942E+02
     -9.582  0.1844E+02  0.5050E+02
     -9.524  0.1804E+02  0.5154E+02
     -9.466  0.1822E+02  0.5260E+02
     -9.408  0.2064E+02  0.5380E+02
     -9.350  0.2614E+02  0.5532E+02
     -9.292  0.3321E+02  0.5726E+02
     -9.233  0.3863E+02  0.5950E+02
     -9.175  0.4050E+02  0.6186E+02
     -9.117  0.3978E+02  0.6417E+02
     -9.059  0.3791E+02  0.6638E+02
     -9.001  0.3421E+02  0.6836E+02
     -8.943  0.2741E+02  0.6996E+02
     -8.885  0.1967E+02  0.7110E+02
     -8.826  0.1706E+02  0.7209E+02
     -8.768  0.2463E+02  0.7353E+02
     -8.710  0.4049E+02  0.7588E+02
     -8.652  0.5560E+02  0.7911E+02
     -8.594  0.6003E+02  0.8261E+02
     -8.536  0.5049E+02  0.8554E+02
     -8.477  0.3216E+02  0.8741E+02
     -8.419  0.1379E+02  0.8821E+02
     -8.361  0.1448E+01  0.8830E+02
     -8.303 -0.3595E+01  0.8809E+02
     -8.245 -0.2688E+01  0.8793E+02
     -8.187  0.2896E+01  0.8810E+02
     -8.129  0.1236E+02  0.8882E+02
     -8.070  0.2402E+02  0.9022E+02
     -8.012  0.3437E+02  0.9221E+02
     -7.954  0.3915E+02  0.9449E+02
     -7.896  0.3605E+02  0.9659E+02
     -7.838  0.2745E+02  0.9818E+02
     -7.780  0.2041E+02  0.9937E+02
     -7.721  0.2269E+02  0.1007E+03
     -7.663  0.3679E+02  0.1028E+03
     -7.605  0.5723E+02  0.1062E+03
     -7.547  0.7415E+02  0.1105E+03
     -7.489  0.8073E+02  0.1152E+03
     -7.431  0.7762E+02  0.1197E+03
     -7.373  0.7053E+02  0.1238E+03
     -7.314  0.6409E+02  0.1275E+03
     -7.256  0.5801E+02  0.1309E+03
     -7.198  0.4898E+02  0.1337E+03
     -7.140  0.3580E+02  0.1358E+03
     -7.082  0.2269E+02  0.1371E+03
     -7.024  0.1750E+02  0.1381E+03
     -6.965  0.2571E+02  0.1396E+03
     -6.907  0.4493E+02  0.1423E+03
     -6.849  0.6480E+02  0.1460E+03
     -6.791  0.7333E+02  0.1503E+03
     -6.733  0.6506E+02  0.1541E+03
     -6.675  0.4424E+02  0.1566E+03
     -6.617  0.2082E+02  0.1579E+03
     -6.558  0.3662E+01  0.1581E+03
     -6.500 -0.2939E+01  0.1579E+03
     -6.442  0.1835E+01  0.1580E+03
     -6.384  0.1720E+02  0.1590E+03
     -6.326  0.4062E+02  0.1614E+03
     -6.268  0.6673E+02  0.1652E+03
     -6.209  0.8808E+02  0.1704E+03
     -6.151  0.9837E+02  0.1761E+03
     -6.093  0.9536E+02  0.1816E+03
     -6.035  0.8170E+02  0.1864E+03
     -5.977  0.6390E+02  0.1901E+03
     -5.919  0.5014E+02  0.1930E+03
     -5.861  0.4635E+02  0.1957E+03
     -5.802  0.5163E+02  0.1987E+03
     -5.744  0.5774E+02  0.2021E+03
     -5.686  0.5569E+02  0.2053E+03
     -5.628  0.4422E+02  0.2079E+03
     -5.570  0.3115E+02  0.2097E+03
     -5.512  0.2603E+02  0.2112E+03
     -5.453  0.3142E+02  0.2130E+03
     -5.395  0.4158E+02  0.2155E+03
     -5.337  0.4882E+02  0.2183E+03
     -5.279  0.5023E+02  0.2212E+03
     -5.221  0.4787E+02  0.2240E+03
     -5.163  0.4392E+02  0.2266E+03
     -5.105  0.3797E+02  0.2288E+03
     -5.046  0.2968E+02  0.2305E+03
     -4.988  0.2188E+02  0.2318E+03
     -4.930  0.1907E+02  0.2329E+03
     -4.872  0.2311E+02  0.2342E+03
     -4.814  0.3122E+02  0.2360E+03
     -4.756  0.3835E+02  0.2383E+03
     -4.697  0.4084E+02  0.2406E+03
     -4.639  0.3846E+02  0.2429E+03
     -4.581  0.3463E+02  0.2449E+03
     -4.523  0.3528E+02  0.2469E+03
     -4.465  0.4541E+02  0.2496E+03
     -4.407  0.6432E+02  0.2533E+03
     -4.349  0.8402E+02  0.2582E+03
     -4.290  0.9412E+02  0.2637E+03
     -4.232  0.8957E+02  0.2689E+03
     -4.174  0.7375E+02  0.2732E+03
     -4.116  0.5463E+02  0.2764E+03
     -4.058  0.3880E+02  0.2786E+03
     -4.000  0.2878E+02  0.2803E+03
     -3.942  0.2439E+02  0.2817E+03
     -3.883  0.2556E+02  0.2832E+03
     -3.825  0.3345E+02  0.2851E+03
     -3.767  0.4890E+02  0.2880E+03
     -3.709  0.6956E+02  0.2920E+03
     -3.651  0.8840E+02  0.2972E+03
     -3.593  0.9606E+02  0.3027E+03
     -3.534  0.8677E+02  0.3078E+03
     -3.476  0.6352E+02  0.3115E+03
     -3.418  0.3700E+02  0.3136E+03
     -3.360  0.1846E+02  0.3147E+03
     -3.302  0.1278E+02  0.3155E+03
     -3.244  0.1811E+02  0.3165E+03
     -3.186  0.3107E+02  0.3183E+03
     -3.127  0.5059E+02  0.3213E+03
     -3.069  0.7567E+02  0.3257E+03
     -3.011  0.1005E+03  0.3315E+03
     -2.953  0.1144E+03  0.3382E+03
     -2.895  0.1084E+03  0.3445E+03
     -2.837  0.8486E+02  0.3494E+03
     -2.778  0.5712E+02  0.3527E+03
     -2.720  0.4131E+02  0.3551E+03
     -2.662  0.4419E+02  0.3577E+03
     -2.604  0.5836E+02  0.3611E+03
     -2.546  0.6887E+02  0.3651E+03
     -2.488  0.6598E+02  0.3689E+03
     -2.430  0.5333E+02  0.3720E+03
     -2.371  0.4404E+02  0.3746E+03
     -2.313  0.4887E+02  0.3774E+03
     -2.255  0.6704E+02  0.3813E+03
     -2.197  0.8785E+02  0.3864E+03
     -2.139  0.1007E+03  0.3923E+03
     -2.081  0.1036E+03  0.3983E+03
     -2.022  0.1016E+03  0.4042E+03
     -1.964  0.9858E+02  0.4100E+03
     -1.906  0.9227E+02  0.4153E+03
     -1.848  0.7858E+02  0.4199E+03
     -1.790  0.5854E+02  0.4233E+03
     -1.732  0.3943E+02  0.4256E+03
     -1.674  0.2876E+02  0.4273E+03
     -1.615  0.2783E+02  0.4289E+03
     -1.557  0.3140E+02  0.4307E+03
     -1.499  0.3326E+02  0.4326E+03
     -1.441  0.3183E+02  0.4345E+03
     -1.383  0.3084E+02  0.4363E+03
     -1.325  0.3507E+02  0.4383E+03
     -1.266  0.4517E+02  0.4410E+03
     -1.208  0.5604E+02  0.4442E+03
     -1.150  0.6100E+02  0.4478E+03
     -1.092  0.5847E+02  0.4512E+03
     -1.034  0.5403E+02  0.4543E+03
     -0.976  0.5463E+02  0.4575E+03
     -0.918  0.6112E+02  0.4610E+03
     -0.859  0.6738E+02  0.4650E+03
     -0.801  0.6710E+02  0.4689E+03
     -0.743  0.6109E+02  0.4724E+03
     -0.685  0.5770E+02  0.4758E+03
     -0.627  0.6549E+02  0.4796E+03
     -0.569  0.8470E+02  0.4845E+03
     -0.510  0.1056E+03  0.4906E+03
     -0.452  0.1157E+03  0.4974E+03
     -0.394  0.1089E+03  0.5037E+03
     -0.336  0.9005E+02  0.5089E+03
     -0.278  0.6986E+02  0.5130E+03
     -0.220  0.5539E+02  0.5162E+03
     -0.162  0.4598E+02  0.5189E+03
     -0.103  0.3818E+02  0.5211E+03
     -0.045  0.3326E+02  0.5230E+03
      0.013  0.3748E+02  0.5252E+03
      0.071  0.5445E+02  0.5284E+03
      0.129  0.7884E+02  0.5330E+03
      0.187  0.9906E+02  0.5387E+03
      0.246  0.1063E+03  0.5449E+03
      0.304  0.1012E+03  0.5508E+03
      0.362  0.9181E+02  0.5561E+03
      0.420  0.8611E+02  0.5612E+03
      0.478  0.8568E+02  0.5661E+03
      0.536  0.8639E+02  0.5712E+03
      0.594  0.8392E+02  0.5760E+03
      0.653  0.7802E+02  0.5806E+03
      0.711  0.7196E+02  0.5848E+03
      0.769  0.6884E+02  0.5888E+03
      0.827  0.6851E+02  0.5927E+03
      0.885  0.6761E+02  0.5967E+03
      0.943  0.6253E+02  0.6003E+03
      1.002  0.5228E+02  0.6034E+03
      1.060  0.3884E+02  0.6056E+03
      1.118  0.2525E+02  0.6071E+03
      1.176  0.1378E+02  0.6079E+03
      1.234  0.5557E+01  0.6082E+03
      1.292  0.7532E+00  0.6083E+03
      1.350 -0.1214E+01  0.6082E+03
      1.409 -0.1427E+01  0.6081E+03
      1.467 -0.9610E+00  0.6080E+03
      1.525 -0.4772E+00  0.6080E+03
      1.583 -0.1864E+00  0.6080E+03
      1.641 -0.5880E-01  0.6080E+03
      1.699 -0.1519E-01  0.6080E+03
      1.758 -0.3238E-02  0.6080E+03
      1.816 -0.5729E-03  0.6080E+03
      1.874 -0.8443E-04  0.6080E+03
      1.932 -0.1039E-04  0.6080E+03
      1.990 -0.1071E-05  0.6080E+03
      2.048 -0.9251E-07  0.6080E+03
      2.106 -0.6708E-08  0.6080E+03
      2.165 -0.4086E-09  0.6080E+03
      2.223 -0.2094E-10  0.6080E+03
      2.281 -0.9011E-12  0.6080E+03
      2.339 -0.3055E-13  0.6080E+03
      2.397  0.0000E+00  0.6080E+03
      2.455  0.0000E+00  0.6080E+03
      2.514  0.0000E+00  0.6080E+03
      2.572  0.0000E+00  0.6080E+03
      2.630  0.0000E+00  0.6080E+03
      2.688  0.0000E+00  0.6080E+03
      2.746  0.0000E+00  0.6080E+03
      2.804  0.0000E+00  0.6080E+03
      2.862  0.0000E+00  0.6080E+03
      2.921  0.0000E+00  0.6080E+03
      2.979  0.0000E+00  0.6080E+03
      3.037  0.0000E+00  0.6080E+03
      3.095  0.0000E+00  0.6080E+03
