  144  144    1    1
  0.6851461E+02  0.1145513E-08  0.1718269E-08  0.5012500E-08  0.5000000E-15
  1.000000000000000E-004
  CAR 
 unknown system                          
    432      1    304
 
  0.0000000E+00  0.0000000E+00  0.0000000E+00  0.1000000E+01
    1      -12.350950   1.000000
    2      -11.872327   1.000000
    3      -11.838181   1.000000
    4      -11.695689   1.000000
    5      -11.262587   1.000000
    6      -11.256233   1.000000
    7      -11.190284   1.000000
    8      -11.165286   1.000000
    9      -10.783282   1.000000
   10      -10.737220   1.000000
   11      -10.728435   1.000000
   12      -10.715865   1.000000
   13      -10.640992   1.000000
   14      -10.585734   1.000000
   15      -10.559574   1.000000
   16      -10.378856   1.000000
   17      -10.361371   1.000000
   18      -10.162275   1.000000
   19      -10.144160   1.000000
   20      -10.103501   1.000000
   21      -10.071646   1.000000
   22      -10.054662   1.000000
   23      -10.040571   1.000000
   24       -9.740006   1.000000
   25       -9.701699   1.000000
   26       -9.529643   1.000000
   27       -9.490773   1.000000
   28       -9.298372   1.000000
   29       -9.267976   1.000000
   30       -9.262766   1.000000
   31       -9.242957   1.000000
   32       -9.167418   1.000000
   33       -9.046308   1.000000
   34       -9.025214   1.000000
   35       -8.991220   1.000000
   36       -8.981885   1.000000
   37       -8.698908   1.000000
   38       -8.685567   1.000000
   39       -8.663369   1.000000
   40       -8.645861   1.000000
   41       -8.633944   1.000000
   42       -8.608619   1.000000
   43       -8.589919   1.000000
   44       -8.556857   1.000000
   45       -8.069607   1.000000
   46       -8.055594   1.000000
   47       -7.964901   1.000000
   48       -7.944179   1.000000
   49       -7.920500   1.000000
   50       -7.876878   1.000000
   51       -7.645811   1.000000
   52       -7.598212   1.000000
   53       -7.595199   1.000000
   54       -7.584325   1.000000
   55       -7.572445   1.000000
   56       -7.553081   1.000000
   57       -7.537547   1.000000
   58       -7.521711   1.000000
   59       -7.469020   1.000000
   60       -7.458169   1.000000
   61       -7.412711   1.000000
   62       -7.405534   1.000000
   63       -7.335618   1.000000
   64       -7.294246   1.000000
   65       -7.285436   1.000000
   66       -7.257611   1.000000
   67       -7.209259   1.000000
   68       -7.186421   1.000000
   69       -7.170679   1.000000
   70       -6.895645   1.000000
   71       -6.890710   1.000000
   72       -6.866034   1.000000
   73       -6.843433   1.000000
   74       -6.826628   1.000000
   75       -6.812979   1.000000
   76       -6.797532   1.000000
   77       -6.788910   1.000000
   78       -6.761267   1.000000
   79       -6.722131   1.000000
   80       -6.345588   1.000000
   81       -6.300744   1.000000
   82       -6.272991   1.000000
   83       -6.250025   1.000000
   84       -6.235334   1.000000
   85       -6.222479   1.000000
   86       -6.204181   1.000000
   87       -6.180677   1.000000
   88       -6.174163   1.000000
   89       -6.158716   1.000000
   90       -6.127356   1.000000
   91       -6.100420   1.000000
   92       -6.088111   1.000000
   93       -6.086022   1.000000
   94       -6.012934   1.000000
   95       -6.001965   1.000000
   96       -5.993893   1.000000
   97       -5.975077   1.000000
   98       -5.792870   1.000000
   99       -5.776710   1.000000
  100       -5.768503   1.000000
  101       -5.751234   1.000000
  102       -5.743676   1.000000
  103       -5.729155   1.000000
  104       -5.701874   1.000000
  105       -5.661525   1.000000
  106       -5.444380   1.000000
  107       -5.398576   1.000000
  108       -5.396610   1.000000
  109       -5.369965   1.000000
  110       -5.360497   1.000000
  111       -5.336396   1.000000
  112       -5.205466   1.000000
  113       -5.177108   1.000000
  114       -5.135808   1.000000
  115       -5.125691   1.000000
  116       -5.090217   1.000000
  117       -4.870126   1.000000
  118       -4.821781   1.000000
  119       -4.799990   1.000000
  120       -4.741864   1.000000
  121       -4.692512   1.000000
  122       -4.654802   1.000000
  123       -4.583064   1.000000
  124       -4.578199   1.000000
  125       -4.407123   1.000000
  126       -4.388793   1.000000
  127       -4.377385   1.000000
  128       -4.370000   1.000000
  129       -4.348953   1.000000
  130       -4.341834   1.000000
  131       -4.330642   1.000000
  132       -4.312456   1.000000
  133       -4.288739   1.000000
  134       -4.271530   1.000000
  135       -4.259732   1.000000
  136       -4.226551   1.000000
  137       -4.185781   1.000000
  138       -4.169588   1.000000
  139       -4.078293   1.000000
  140       -4.070826   1.000000
  141       -3.939792   1.000000
  142       -3.934108   1.000000
  143       -3.804169   1.000000
  144       -3.770161   1.000000
  145       -3.717924   1.000000
  146       -3.709021   1.000000
  147       -3.678477   1.000000
  148       -3.665818   1.000000
  149       -3.623168   1.000000
  150       -3.606360   1.000000
  151       -3.596931   1.000000
  152       -3.588807   1.000000
  153       -3.579697   1.000000
  154       -3.570949   1.000000
  155       -3.560297   1.000000
  156       -3.534896   1.000000
  157       -3.518341   1.000000
  158       -3.265340   1.000000
  159       -3.247927   1.000000
  160       -3.180516   1.000000
  161       -3.128781   1.000000
  162       -3.060840   1.000000
  163       -3.044169   1.000000
  164       -3.017968   1.000000
  165       -3.005541   1.000000
  166       -2.994922   1.000000
  167       -2.983534   1.000000
  168       -2.975400   1.000000
  169       -2.963349   1.000000
  170       -2.946507   1.000000
  171       -2.941326   1.000000
  172       -2.927338   1.000000
  173       -2.924229   1.000000
  174       -2.900993   1.000000
  175       -2.871597   1.000000
  176       -2.862960   1.000000
  177       -2.843824   1.000000
  178       -2.627843   1.000000
  179       -2.614700   1.000000
  180       -2.604359   1.000000
  181       -2.583416   1.000000
  182       -2.572863   1.000000
  183       -2.550443   1.000000
  184       -2.534668   1.000000
  185       -2.525228   1.000000
  186       -2.508841   1.000000
  187       -2.492973   1.000000
  188       -2.312350   1.000000
  189       -2.297161   1.000000
  190       -2.232264   1.000003
  191       -2.213793   1.000005
  192       -2.206911   1.000006
  193       -2.195799   1.000009
  194       -2.189563   1.000011
  195       -2.180725   1.000015
  196       -2.172021   1.000019
  197       -2.167103   1.000023
  198       -2.150148   1.000038
  199       -2.125793   1.000076
  200       -2.084801   1.000233
  201       -2.063026   1.000406
  202       -2.002569   1.001644
  203       -1.986934   1.002281
  204       -1.970104   1.003192
  205       -1.953395   1.004380
  206       -1.938570   1.005715
  207       -1.932534   1.006343
  208       -1.922894   1.007455
  209       -1.904603   1.009958
  210       -1.882849   1.013629
  211       -1.866017   1.016963
  212       -1.810264   1.029465
  213       -1.801332   1.031263
  214       -1.588417   0.776392
  215       -1.585809   0.767347
  216       -1.564945   0.690365
  217       -1.543124   0.602886
  218       -1.414186   0.118007
  219       -1.395004   0.072069
  220       -1.258267  -0.034638
  221       -1.220815  -0.028141
  222       -1.197125  -0.022724
  223       -1.185981  -0.020181
  224       -1.179931  -0.018837
  225       -1.154243  -0.013607
  226       -1.150224  -0.012873
  227       -1.121141  -0.008327
  228       -0.970504  -0.000370
  229       -0.944292  -0.000188
  230       -0.938431  -0.000161
  231       -0.914956  -0.000084
  232       -0.890566  -0.000042
  233       -0.854546  -0.000014
  234       -0.818775  -0.000004
  235       -0.801460  -0.000002
  236       -0.791577  -0.000002
  237       -0.788427  -0.000002
  238       -0.764485  -0.000001
  239       -0.597825  -0.000000
  240       -0.591563  -0.000000
  241       -0.577213  -0.000000
  242       -0.562135  -0.000000
  243       -0.551571  -0.000000
  244       -0.547630  -0.000000
  245       -0.516209  -0.000000
  246       -0.506258  -0.000000
  247       -0.474183  -0.000000
  248       -0.464022  -0.000000
  249       -0.451689  -0.000000
  250       -0.443543  -0.000000
  251       -0.436598  -0.000000
  252       -0.412550  -0.000000
  253       -0.407276  -0.000000
  254       -0.387101  -0.000000
  255       -0.385904  -0.000000
  256       -0.357493  -0.000000
  257       -0.212541  -0.000000
  258       -0.207882  -0.000000
  259       -0.187312  -0.000000
  260       -0.163087  -0.000000
  261       -0.146913  -0.000000
  262       -0.134413  -0.000000
  263        0.075705  -0.000000
  264        0.086952  -0.000000
  265        0.110684  -0.000000
  266        0.129762  -0.000000
  267        0.151750  -0.000000
  268        0.157230  -0.000000
  269        0.168336  -0.000000
  270        0.183207  -0.000000
  271        0.200707  -0.000000
  272        0.225143  -0.000000
  273        0.227990  -0.000000
  274        0.242454  -0.000000
  275        0.262991  -0.000000
  276        0.284779  -0.000000
  277        0.310583  -0.000000
  278        0.313715  -0.000000
  279        0.400272  -0.000000
  280        0.421089  -0.000000
  281        0.423308  -0.000000
  282        0.463434  -0.000000
  283        0.475514  -0.000000
  284        0.495893  -0.000000
  285        0.502987  -0.000000
  286        0.523639  -0.000000
  287        0.547335  -0.000000
  288        0.584954  -0.000000
  289        0.602087  -0.000000
  290        0.625419  -0.000000
  291        0.638957  -0.000000
  292        0.673495  -0.000000
  293        0.725224  -0.000000
  294        0.745995  -0.000000
  295        0.786840  -0.000000
  296        0.832795  -0.000000
  297        0.837064  -0.000000
  298        0.848118  -0.000000
  299        0.910515  -0.000000
  300        0.929443  -0.000000
  301        0.932936  -0.000000
  302        0.948015  -0.000000
  303        1.059255  -0.000000
  304        1.095053  -0.000000
