       N       E                     dE             d eps       ncg     rms          rms(c)
DAV:   1    -0.757527211567E+03   -0.75753E+03   -0.11167E+03   704   0.512E+01    0.423E+01
DAV:   2    -0.121573812781E+04   -0.45821E+03   -0.41191E+03  1008   0.837E+01    0.570E+01
DAV:   3    -0.629806461735E+03    0.58593E+03   -0.40072E+03   960   0.710E+01    0.296E+01
DAV:   4    -0.563940834370E+03    0.65866E+02   -0.75492E+02   848   0.375E+01    0.209E+01
DAV:   5    -0.572664947130E+03   -0.87241E+01   -0.22957E+02   800   0.172E+01    0.155E+01
DAV:   6    -0.574197002231E+03   -0.15321E+01   -0.25107E+01   848   0.639E+00    0.889E+00
DAV:   7    -0.572420183888E+03    0.17768E+01   -0.26760E+00   784   0.351E+00    0.424E+00
DAV:   8    -0.572422717893E+03   -0.25340E-02   -0.15763E+00   720   0.200E+00    0.226E+00
DAV:   9    -0.572321139301E+03    0.10158E+00   -0.42573E-01   752   0.126E+00    0.132E+00
DAV:  10    -0.572329549211E+03   -0.84099E-02   -0.14488E-01   816   0.652E-01    0.121E+00
DAV:  11    -0.572329270546E+03    0.27866E-03   -0.52501E-02   784   0.400E-01    0.105E+00
DAV:  12    -0.572338436850E+03   -0.91663E-02   -0.19948E-02   752   0.204E-01    0.720E-01
DAV:  13    -0.572345105648E+03   -0.66688E-02   -0.87165E-03   752   0.144E-01    0.398E-01
DAV:  14    -0.572349469434E+03   -0.43638E-02   -0.32758E-03   768   0.102E-01    0.218E-01
DAV:  15    -0.572353985788E+03   -0.45164E-02   -0.18451E-03   704   0.695E-02    0.126E-01
DAV:  16    -0.572359242450E+03   -0.52567E-02   -0.10925E-03   672   0.491E-02    0.763E-02
DAV:  17    -0.572361846964E+03   -0.26045E-02   -0.38963E-04   608   0.295E-02    0.365E-02
DAV:  18    -0.572365225163E+03   -0.33782E-02   -0.37709E-04   528   0.188E-02    0.401E-02
DAV:  19    -0.572366660762E+03   -0.14356E-02   -0.90725E-05   560   0.123E-02    0.156E-02
DAV:  20    -0.572368055647E+03   -0.13949E-02   -0.10933E-04   544   0.105E-02    0.157E-02
DAV:  21    -0.572368493480E+03   -0.43783E-03   -0.21672E-05   480   0.598E-03    0.942E-03
DAV:  22    -0.572368965062E+03   -0.47158E-03   -0.21147E-05   400   0.577E-03    0.674E-03
DAV:  23    -0.572369049918E+03   -0.84856E-04   -0.54662E-06   384   0.338E-03
   1 F= -.57236905E+03 E0= -.57237852E+03  d E =0.284246E-01
