 vasp.5.4.4.18Apr17-6-g9f103f2a35 (build May 07 2018 22:18:08) complex          
  
 executed on             LinuxIFC date 2020.08.06  18:31:12
 running on   64 total cores
 distrk:  each k-point on   64 cores,    1 groups
 distr:  one band on NCORES_PER_BAND=   4 cores,   16 groups


--------------------------------------------------------------------------------------------------------


 INCAR:
 POTCAR:    PAW Al 17Apr2000                      
 POTCAR:    PAW Al 17Apr2000                      
   VRHFIN =Al: s2p1                                                             
   LEXCH  = CA                                                                  
   EATOM  =    53.7930 eV,    3.9537 Ry                                         
                                                                                
   TITEL  = PAW Al 17Apr2000                                                    
   LULTRA =        F    use ultrasoft PP ?                                      
   IUNSCR =        1    unscreen: 0-lin 1-nonlin 2-no                           
   RPACOR =    1.500    partial core radius                                     
   POMASS =   26.981; ZVAL   =    3.000    mass and valenz                      
   RCORE  =    1.900    outmost cutoff radius                                   
   RWIGS  =    2.650; RWIGS  =    1.402    wigner-seitz radius (au A)           
   ENMAX  =  240.957; ENMIN  =  180.718 eV                                      
   ICORE  =        2    local potential                                         
   LCOR   =        T    correct aug charges                                     
   LPAW   =        T    paw PP                                                  
   EAUG   =  291.052                                                            
   DEXC   =    0.000                                                            
   RMAX   =    1.939    core radius for proj-oper                               
   RAUG   =    1.300    factor for augmentation sphere                          
   RDEP   =    1.966    radius for radial grids                                 
   RDEPT  =    1.871    core radius for aug-charge                              
                                                                                
   Atomic configuration                                                         
    6 entries                                                                   
     n  l   j            E        occ.                                          
     1  0  0.50     -1502.2303   2.0000                                         
     2  0  0.50      -107.3893   2.0000                                         
     2  1  1.50       -69.6946   6.0000                                         
     3  0  0.50        -7.8312   2.0000                                         
     3  1  1.50        -2.7901   1.0000                                         
     3  2  2.50        -2.7212   0.0000                                         
   Description                                                                  
     l       E           TYP  RCUT    TYP  RCUT                                 
     0     -7.8312058     23  1.900                                             
     0     -3.5156079     23  1.900                                             
     1     -2.7900872     23  1.900                                             
     1     13.6058260     23  1.900                                             
     2     -2.7211652      7  1.900                                             
  local pseudopotential read in
  partial core-charges read in
  partial kinetic energy density read in
  atomic valenz-charges read in
  non local Contribution for L=           0  read in
    real space projection operators read in
  non local Contribution for L=           0  read in
    real space projection operators read in
  non local Contribution for L=           1  read in
    real space projection operators read in
  non local Contribution for L=           1  read in
    real space projection operators read in
    PAW grid and wavefunctions read in
 
   number of l-projection  operators is LMAX  =           4
   number of lm-projection operators is LMMAX =           8
 

 ----------------------------------------------------------------------------- 
|                                                                             |
|  ADVICE TO THIS USER RUNNING 'VASP/VAMP'   (HEAR YOUR MASTER'S VOICE ...):  |
|                                                                             |
|      You have a (more or less) 'large supercell' and for larger cells       |
|      it might be more efficient to use real space projection opertators     |
|      So try LREAL= Auto  in the INCAR   file.                               |
|      Mind:          For very  accurate calculation you might also keep the  |
|      reciprocal projection scheme          (i.e. LREAL=.FALSE.)             |
|                                                                             |
 ----------------------------------------------------------------------------- 

  PAW Al 17Apr2000                      :
 energy of atom  1       EATOM=  -53.7930
 kinetic energy error for atom=    0.0031 (will be added to EATOM!!)
 
 
 POSCAR: Al                                      
  positions in cartesian coordinates
  No initial velocities read in
 exchange correlation table for  LEXCH =        2
   RHO(1)=    0.500       N(1)  =     2000
   RHO(2)=  100.500       N(2)  =     4000
 


--------------------------------------------------------------------------------------------------------


 ion  position               nearest neighbor table
   1  0.107  0.083  0.400-  26 2.76  25 2.78   5 2.82  21 2.82  29 2.85  30 2.86   4 2.86   2 2.87

   2  0.358  0.085  0.397-  27 2.79   3 2.82  26 2.83  22 2.85  30 2.87   1 2.87   6 2.98  31 3.00

   3  0.604  0.092  0.398-   7 2.75  28 2.80  27 2.81   2 2.82  31 2.84   4 2.90  32 2.95  23 3.00

   4  0.858  0.089  0.400-  28 2.76  25 2.77  24 2.80  29 2.81  32 2.84   1 2.86   3 2.90   8 2.91

   5  0.116  0.246  0.397-  30 2.74   1 2.82   8 2.82  29 2.84   6 2.85  34 2.90  33 2.94   9 2.99

   6  0.364  0.259  0.398-  35 2.75  31 2.82  34 2.83  30 2.85   5 2.85   7 2.88  10 2.89   2 2.98

   7  0.615  0.252  0.397-   3 2.75  32 2.77  31 2.81   6 2.88  35 2.89  11 2.93   8 2.93  36 2.97

   8  0.871  0.258  0.396-   5 2.82  33 2.82  29 2.84  36 2.85  12 2.90  32 2.91   4 2.91   7 2.93

   9  0.116  0.420  0.400-  34 2.65  38 2.74  33 2.76  10 2.78  13 2.84  37 2.86  12 2.94   5 2.99

  10  0.358  0.427  0.397-   9 2.78  35 2.82  14 2.84  38 2.84  34 2.86   6 2.89  11 2.90  39 2.92

  11  0.611  0.422  0.396-  35 2.79  12 2.85  15 2.87  39 2.89  10 2.90   7 2.93  40 2.99  36 3.02

  12  0.859  0.426  0.400-  16 2.73  36 2.74  40 2.80  11 2.85  37 2.85  33 2.86   8 2.90   9 2.94

  13  0.114  0.585  0.396-  38 2.82   9 2.84  14 2.87  37 2.89  41 2.89  42 2.89  16 2.93  17 2.94

  14  0.364  0.592  0.397-  18 2.80  10 2.84  39 2.85  13 2.87  42 2.90  38 2.91  43 2.92  15 2.94

  15  0.620  0.589  0.397-  16 2.72  40 2.77  19 2.80  39 2.81  11 2.87  14 2.94  44 2.94  43 2.96

  16  0.858  0.585  0.400-  40 2.68  41 2.72  15 2.72  12 2.73  37 2.83  44 2.84  20 2.91  13 2.93

  17  0.106  0.756  0.398-  21 2.82  42 2.84  41 2.84  18 2.88  46 2.89  45 2.93  20 2.94  13 2.94

  18  0.358  0.755  0.399-  14 2.80  46 2.81  42 2.82  22 2.84  17 2.88  19 2.89  47 2.91  43 2.93

  19  0.610  0.751  0.400-  44 2.72  20 2.75  43 2.77  15 2.80  47 2.83  23 2.86  48 2.86  18 2.89

  20  0.850  0.754  0.397-  44 2.67  19 2.75  41 2.88  48 2.90  16 2.91  17 2.94  24 2.96  45 2.99

  21  0.087  0.919  0.399-  45 2.68  24 2.75  25 2.81  17 2.82   1 2.82  46 2.93  22 2.97  26 3.09

  22  0.347  0.920  0.399-  46 2.70  18 2.84   2 2.85  26 2.88  27 2.94  47 2.97  21 2.97  23 2.97

  23  0.606  0.917  0.398-  48 2.76  24 2.78  47 2.82  19 2.86  28 2.92  27 2.92  22 2.97   3 3.00

  24  0.848  0.926  0.396-  21 2.75  23 2.78   4 2.80  48 2.83  28 2.89  20 2.96  25 2.96  45 2.99

  25  0.978  0.008  0.439-  52 2.74   4 2.77   1 2.78  21 2.81  49 2.82  45 2.82  72 2.83  28 2.86
                            29 2.87  26 2.95  24 2.96  69 2.98
  26  0.235  0.011  0.439-   1 2.76  50 2.77  49 2.79  30 2.81  27 2.83   2 2.83  69 2.84  22 2.88
                            70 2.89  25 2.95  46 2.96  21 3.09
  27  0.482  0.010  0.438-   2 2.79  51 2.81   3 2.81  28 2.82  26 2.83  50 2.85  71 2.89  70 2.90
                            31 2.92  23 2.92  22 2.94  47 2.96
  28  0.728  0.011  0.438-   4 2.76  51 2.79   3 2.80  52 2.81  27 2.82  48 2.85  25 2.86  71 2.88
                            24 2.89  23 2.92  72 2.92  32 2.92
  29  0.984  0.175  0.438-  33 2.77  53 2.78   4 2.81  49 2.82  32 2.82   8 2.84   5 2.84   1 2.85
                            25 2.87  56 2.88  30 2.89  52 2.94
  30  0.236  0.175  0.437-   5 2.74  26 2.81  54 2.83  34 2.84   6 2.85   1 2.86   2 2.87  50 2.87
                            31 2.88  29 2.89  49 2.91  53 2.95
  31  0.488  0.179  0.438-  55 2.76  35 2.80   7 2.81   6 2.82   3 2.84  32 2.87  54 2.87  51 2.87
                            30 2.88  50 2.92  27 2.92   2 3.00
  32  0.738  0.181  0.438-  36 2.68  56 2.76   7 2.77  55 2.78  29 2.82   4 2.84  31 2.87   8 2.91
                            28 2.92  52 2.94   3 2.95  51 2.97
  33  0.991  0.336  0.437-  36 2.73   9 2.76  29 2.77  53 2.78  34 2.78   8 2.82  57 2.83  12 2.86
                             5 2.94  60 2.96  56 2.96  37 2.96
  34  0.233  0.340  0.437-   9 2.65  54 2.74  33 2.78  58 2.81   6 2.83  30 2.84  10 2.86  38 2.86
                            35 2.89   5 2.90  57 2.96  53 3.00
  35  0.486  0.342  0.436-   6 2.75  11 2.79  31 2.80  58 2.80  10 2.82  59 2.87  55 2.87   7 2.89
                            34 2.89  54 2.89  39 2.90  36 3.06
  36  0.752  0.337  0.438-  32 2.68  33 2.73  12 2.74  60 2.74  56 2.77  55 2.84   8 2.85   7 2.97
                            59 2.97  11 3.02  40 3.03  35 3.06
  37  0.991  0.508  0.439-  57 2.75  41 2.75  38 2.77  16 2.83  12 2.85  61 2.85   9 2.86  13 2.89
                            40 2.91  64 2.93  60 2.94  33 2.96
  38  0.233  0.507  0.438-   9 2.74  37 2.77  13 2.82  62 2.83  10 2.84  58 2.85  34 2.86  42 2.86
                            14 2.91  61 2.92  57 2.93  39 2.99
  39  0.493  0.511  0.437-  43 2.78  62 2.80  59 2.80  40 2.80  15 2.81  14 2.85  63 2.89  11 2.89
                            35 2.90  58 2.91  10 2.92  38 2.99
  40  0.738  0.513  0.438-  16 2.68  15 2.77  12 2.80  39 2.80  64 2.89  59 2.89  63 2.90  60 2.91
                            44 2.91  37 2.91  11 2.99  36 3.03
  41  0.982  0.668  0.436-  16 2.72  44 2.73  37 2.75  68 2.83  42 2.84  17 2.84  20 2.88  13 2.89
                            64 2.93  65 2.95  61 2.95  45 3.02
  42  0.229  0.673  0.438-  65 2.72  18 2.82  41 2.84  17 2.84  61 2.86  46 2.86  38 2.86  13 2.89
                            62 2.89  14 2.90  66 2.96  43 3.00
  43  0.491  0.672  0.440-  19 2.77  62 2.78  66 2.78  39 2.78  63 2.81  47 2.84  44 2.91  67 2.92
                            14 2.92  18 2.93  15 2.96  42 3.00
  44  0.745  0.682  0.438-  20 2.67  19 2.72  41 2.73  67 2.78  68 2.80  48 2.81  16 2.84  40 2.91
                            43 2.91  15 2.94  64 2.98  63 3.07
  45  0.981  0.844  0.439-  21 2.68  68 2.70  25 2.82  72 2.84  48 2.85  65 2.91  17 2.93  46 2.93
                            69 2.95  24 2.99  20 2.99  41 3.02
  46  0.237  0.840  0.438-  22 2.70  65 2.81  18 2.81  70 2.82  42 2.86  17 2.89  47 2.89  69 2.91
                            45 2.93  21 2.93  26 2.96  66 3.01
  47  0.489  0.837  0.439-  71 2.75  48 2.79  70 2.81  23 2.82  19 2.83  43 2.84  66 2.85  46 2.89
                            18 2.91  67 2.95  27 2.96  22 2.97
  48  0.733  0.845  0.438-  23 2.76  71 2.78  47 2.79  44 2.81  72 2.83  24 2.83  45 2.85  28 2.85
                            19 2.86  67 2.88  20 2.90  68 2.96
  49  0.105  0.092  0.478-  26 2.79  53 2.80  29 2.82  25 2.82  52 2.84  77 2.84  78 2.85  69 2.86
                            73 2.89  30 2.91  50 2.91  74 2.92
  50  0.358  0.092  0.478-  79 2.71  26 2.77  51 2.84  27 2.85  30 2.87  74 2.88  78 2.90  49 2.91
                            31 2.92  75 2.92  54 2.96  70 2.98
  51  0.606  0.088  0.478-  28 2.79  27 2.81  50 2.84  52 2.87  31 2.87  71 2.87  80 2.88  79 2.89
                            76 2.91  75 2.93  55 2.95  32 2.97
  52  0.857  0.084  0.478-  25 2.74  72 2.75  28 2.81  49 2.84  76 2.86  51 2.87  77 2.88  73 2.88
                            56 2.90  29 2.94  32 2.94  80 2.97
  53  0.098  0.254  0.479-  56 2.77  33 2.78  29 2.78  78 2.78  49 2.80  77 2.83  81 2.85  82 2.89
                            57 2.90  54 2.92  30 2.95  34 3.00
  54  0.352  0.264  0.476-  58 2.67  34 2.74  83 2.78  30 2.83  31 2.87  82 2.87  79 2.88  35 2.89
                            53 2.92  78 2.94  50 2.96  55 2.96
  55  0.610  0.260  0.477-  31 2.76  32 2.78  84 2.81  56 2.82  59 2.82  36 2.84  83 2.84  35 2.87
                            51 2.95  54 2.96  79 2.97  80 2.98
  56  0.856  0.253  0.479-  32 2.76  53 2.77  36 2.77  84 2.81  55 2.82  77 2.84  60 2.85  29 2.88
                            52 2.90  80 2.91  81 2.91  33 2.96
  57  0.100  0.423  0.478-  37 2.75  86 2.80  60 2.81  81 2.82  33 2.83  82 2.83  85 2.85  53 2.90
                            61 2.91  38 2.93  34 2.96  58 3.01
  58  0.362  0.419  0.476-  54 2.67  83 2.78  35 2.80  59 2.80  34 2.81  38 2.85  62 2.88  87 2.89
                            39 2.91  86 2.94  82 2.95  57 3.01
  59  0.606  0.424  0.477-  39 2.80  58 2.80  55 2.82  83 2.84  60 2.85  35 2.87  63 2.87  87 2.88
                            40 2.89  84 2.93  88 2.95  36 2.97
  60  0.855  0.419  0.479-  36 2.74  57 2.81  84 2.83  85 2.84  59 2.85  56 2.85  81 2.86  40 2.91
                            88 2.93  37 2.94  64 2.95  33 2.96
  61  0.113  0.592  0.480-  86 2.74  65 2.78  90 2.79  89 2.84  37 2.85  42 2.86  64 2.88  62 2.88
                            85 2.91  57 2.91  38 2.92  41 2.95
  62  0.364  0.587  0.477-  43 2.78  39 2.80  63 2.81  66 2.82  38 2.83  87 2.86  58 2.88  61 2.88
                            42 2.89  86 2.92  91 2.94  90 2.96
  63  0.609  0.591  0.480-  92 2.77  43 2.81  67 2.81  62 2.81  91 2.84  88 2.84  59 2.87  87 2.88
                            39 2.89  64 2.89  40 2.90  44 3.07
  64  0.861  0.591  0.481-  85 2.72  89 2.75  92 2.75  88 2.87  61 2.88  40 2.89  68 2.89  63 2.89
                            37 2.93  41 2.93  60 2.95  44 2.98
  65  0.117  0.754  0.477-  42 2.72  68 2.77  61 2.78  46 2.81  94 2.87  90 2.89  66 2.90  45 2.91
                            69 2.95  41 2.95  93 2.95  89 3.02
  66  0.370  0.751  0.479-  91 2.69  43 2.78  95 2.79  62 2.82  90 2.84  94 2.84  47 2.85  70 2.89
                            65 2.90  42 2.96  67 2.97  46 3.01
  67  0.629  0.754  0.480-  92 2.69  44 2.78  63 2.81  96 2.81  68 2.82  95 2.87  48 2.88  71 2.88
                            43 2.92  91 2.95  47 2.95  66 2.97
  68  0.875  0.759  0.477-  45 2.70  65 2.77  44 2.80  93 2.80  67 2.82  41 2.83  72 2.87  64 2.89
                            89 2.89  48 2.96  96 3.00  92 3.01
  69  0.119  0.925  0.480-  94 2.75  70 2.77  74 2.79  73 2.79  26 2.84  49 2.86  46 2.91  93 2.92
                            65 2.95  45 2.95  25 2.98  72 3.03
  70  0.360  0.919  0.478-  94 2.74  69 2.77  47 2.81  46 2.82  71 2.83  95 2.86  66 2.89  26 2.89
                            27 2.90  75 2.92  50 2.98  74 2.98
  71  0.608  0.921  0.478-  47 2.75  48 2.78  72 2.82  70 2.83  95 2.84  51 2.87  28 2.88  67 2.88
                            27 2.89  76 2.90  75 2.97  96 2.97
  72  0.854  0.925  0.479-  52 2.75  76 2.82  71 2.82  48 2.83  25 2.83  96 2.84  45 2.84  73 2.85
                            68 2.87  28 2.92  93 2.95  69 3.03
  73  0.987  0.002  0.519-  97 2.79  69 2.79  74 2.83  72 2.85 117 2.86  93 2.86  77 2.86  52 2.88
                           120 2.89  49 2.89  76 2.92 100 3.00
  74  0.233  0.010  0.519-  98 2.69  69 2.79  97 2.81  75 2.82  73 2.83  78 2.88 117 2.88  50 2.88
                           118 2.88  94 2.92  49 2.92  70 2.98
  75  0.480  0.006  0.520-  99 2.73  98 2.77 118 2.80  74 2.82 119 2.84  79 2.89  76 2.89  50 2.92
                            95 2.92  70 2.92  51 2.93  71 2.97
  76  0.732  0.004  0.519-  96 2.81  72 2.82  99 2.83 120 2.85  80 2.85  52 2.86 100 2.87 119 2.88
                            75 2.89  71 2.90  51 2.91  73 2.92
  77  0.980  0.169  0.519- 104 2.80  78 2.80  97 2.81  53 2.83 101 2.83 100 2.84  49 2.84  56 2.84
                            73 2.86  52 2.88  80 2.92  81 2.95
  78  0.225  0.177  0.518- 101 2.77  53 2.78  77 2.80  79 2.81 102 2.82  82 2.83  49 2.85  74 2.88
                            50 2.90  98 2.93  54 2.94  97 2.95
  79  0.470  0.174  0.517-  50 2.71  78 2.81 102 2.81  83 2.86  54 2.88  75 2.89  51 2.89  98 2.89
                           103 2.91  99 2.92  80 2.94  55 2.97
  80  0.726  0.170  0.520-  99 2.73 103 2.75 100 2.79  84 2.85  76 2.85 104 2.88  51 2.88  56 2.91
                            77 2.92  79 2.94  52 2.97  55 2.98
  81  0.984  0.341  0.519- 101 2.73  82 2.78 108 2.81  57 2.82 105 2.83  85 2.83  53 2.85 104 2.86
                            60 2.86  84 2.90  56 2.91  77 2.95
  82  0.226  0.342  0.518-  81 2.78  86 2.78 101 2.79  78 2.83  57 2.83 105 2.85  54 2.87 106 2.89
                            83 2.89  53 2.89  58 2.95 102 2.95
  83  0.478  0.340  0.516-  58 2.78  54 2.78  87 2.79  59 2.84  55 2.84  79 2.86 107 2.86  84 2.89
                           103 2.89  82 2.89 106 2.93 102 3.00
  84  0.730  0.336  0.518- 103 2.78  56 2.81 107 2.81  55 2.81  60 2.83  80 2.85 108 2.86  83 2.89
                            81 2.90  59 2.93 104 2.94  88 2.94
  85  0.974  0.506  0.518-  64 2.72  88 2.78  81 2.83  60 2.84  89 2.84 109 2.85  57 2.85 112 2.86
                           108 2.88  61 2.91  86 2.91 105 2.93
  86  0.228  0.504  0.517-  61 2.74  82 2.78  57 2.80  87 2.85 109 2.87  90 2.90 105 2.91  85 2.91
                            62 2.92 106 2.93  58 2.94 110 3.02
  87  0.477  0.502  0.518-  83 2.79 106 2.80 107 2.81  86 2.85  62 2.86  59 2.88  63 2.88  58 2.89
                           111 2.90  88 2.92 110 2.93  91 2.97
  88  0.731  0.507  0.520- 107 2.77  85 2.78 111 2.79 108 2.83  63 2.84  92 2.85  64 2.87 112 2.88
                            87 2.92  60 2.93  84 2.94  59 2.95
  89  0.981  0.671  0.520-  64 2.75 112 2.78 116 2.79 113 2.80 109 2.80  92 2.80  85 2.84  93 2.84
                            61 2.84  68 2.89  90 2.95  65 3.02
  90  0.238  0.672  0.519- 113 2.77  91 2.78  61 2.79 114 2.81 110 2.82  66 2.84 109 2.87  94 2.89
                            65 2.89  86 2.90  89 2.95  62 2.96
  91  0.480  0.675  0.519-  66 2.69  95 2.77  90 2.78 115 2.81 114 2.82  63 2.84 110 2.87 111 2.91
                            92 2.93  62 2.94  67 2.95  87 2.97
  92  0.736  0.672  0.518-  67 2.69  64 2.75  63 2.77  89 2.80 115 2.84  88 2.85 112 2.87  96 2.89
                            91 2.93 116 2.94 111 2.95  68 3.01
  93  0.986  0.836  0.519- 113 2.76 116 2.80  68 2.80  96 2.80 117 2.81 120 2.83  89 2.84  73 2.86
                            69 2.92  94 2.92  65 2.95  72 2.95
  94  0.241  0.840  0.517-  70 2.74  69 2.75 114 2.81  66 2.84  95 2.85 118 2.86 117 2.86  65 2.87
                           113 2.88  90 2.89  93 2.92  74 2.92
  95  0.490  0.836  0.518-  91 2.77  66 2.79  71 2.84 115 2.84  94 2.85  70 2.86 114 2.86  67 2.87
                            96 2.89  75 2.92 119 2.92 118 2.93
  96  0.741  0.841  0.520- 120 2.67  93 2.80  76 2.81  67 2.81  72 2.84 116 2.86 115 2.86  95 2.89
                            92 2.89 119 2.94  71 2.97  68 3.00
  97  0.100  0.086  0.559- 121 2.69 126 2.79  73 2.79  77 2.81  74 2.81 100 2.84  98 2.88 117 2.91
                           122 2.93  78 2.95 101 2.96 125 3.10
  98  0.351  0.086  0.558-  74 2.69  75 2.77 122 2.79 123 2.80 126 2.80 102 2.81 118 2.84  99 2.87
                            97 2.88  79 2.89  78 2.93 127 2.97
  99  0.602  0.089  0.557-  80 2.73  75 2.73 127 2.80 119 2.83  76 2.83 123 2.85  98 2.87 103 2.87
                           100 2.87 124 2.90  79 2.92 128 2.97
 100  0.852  0.092  0.559- 124 2.71 104 2.74  80 2.79  77 2.84  97 2.84 121 2.86  76 2.87  99 2.87
                           128 2.90  73 3.00 125 3.01 120 3.02
 101  0.104  0.258  0.557-  81 2.73 104 2.76  78 2.77  82 2.79 105 2.83  77 2.83 126 2.86 102 2.86
                           129 2.94  97 2.96 125 2.99 130 3.04
 102  0.354  0.250  0.559- 131 2.75 126 2.77  79 2.81  98 2.81  78 2.82 127 2.86 101 2.86 103 2.88
                           130 2.92  82 2.95 106 2.97  83 3.00
 103  0.605  0.256  0.557- 131 2.73  80 2.75  84 2.78 107 2.80 127 2.84 132 2.85  99 2.87 102 2.88
                            83 2.89  79 2.91 128 2.92 104 2.97
 104  0.864  0.252  0.559- 100 2.74 101 2.76 125 2.78  77 2.80 129 2.83  81 2.86 108 2.87  80 2.88
                           132 2.89 128 2.93  84 2.94 103 2.97
 105  0.106  0.423  0.560- 109 2.81  81 2.83 101 2.83  82 2.85 129 2.87 106 2.87 133 2.87 130 2.89
                           108 2.90  86 2.91  85 2.93 134 3.00
 106  0.357  0.423  0.559- 131 2.71  87 2.80 130 2.81 107 2.85 105 2.87 135 2.89  82 2.89 110 2.91
                            83 2.93  86 2.93 134 2.96 102 2.97
 107  0.606  0.420  0.557-  88 2.77 131 2.77 103 2.80  84 2.81  87 2.81 108 2.84 135 2.85 106 2.85
                           111 2.85  83 2.86 132 2.90 136 2.90
 108  0.854  0.418  0.559- 136 2.77 129 2.80  81 2.81  88 2.83 132 2.84 107 2.84  84 2.86 104 2.87
                            85 2.88 105 2.90 133 2.91 112 2.99
 109  0.106  0.586  0.558- 137 2.79  89 2.80 112 2.80 105 2.81  85 2.85 134 2.86  86 2.87  90 2.87
                           110 2.87 113 2.89 133 2.91 138 2.97
 110  0.356  0.592  0.560- 138 2.73 134 2.74 139 2.82  90 2.82 111 2.86  91 2.87 109 2.87 114 2.88
                           106 2.91  87 2.93 135 2.94  86 3.02
 111  0.606  0.586  0.559- 135 2.76 136 2.77  88 2.79 107 2.85 110 2.86 115 2.89 139 2.90  87 2.90
                            91 2.91 112 2.93  92 2.95 140 2.98
 112  0.862  0.592  0.560-  89 2.78 140 2.78 136 2.79 109 2.80 116 2.82 133 2.82  85 2.86  92 2.87
                            88 2.88 137 2.90 111 2.93 108 2.99
 113  0.112  0.755  0.557-  93 2.76  90 2.77 114 2.78 117 2.79  89 2.80 116 2.80 141 2.82  94 2.88
                           138 2.89 109 2.89 137 2.93 142 2.96
 114  0.355  0.759  0.558- 118 2.78 113 2.78 142 2.79 138 2.80  90 2.81  94 2.81  91 2.82  95 2.86
                           110 2.88 143 2.89 139 2.91 115 2.93
 115  0.610  0.754  0.558-  91 2.81  92 2.84  95 2.84 143 2.85  96 2.86 139 2.88 111 2.89 140 2.89
                           114 2.93 144 2.94 119 2.94 116 2.95
 116  0.868  0.756  0.560- 120 2.76 141 2.77  89 2.79  93 2.80 113 2.80 140 2.81 112 2.82  96 2.86
                            92 2.94 115 2.95 137 2.99 144 3.04
 117  0.112  0.917  0.558- 141 2.63 113 2.79  93 2.81 118 2.82 122 2.83 121 2.85  73 2.86  94 2.86
                            74 2.88  97 2.91 142 2.92 120 2.93
 118  0.359  0.921  0.559- 122 2.73 114 2.78  75 2.80 119 2.81 117 2.82  98 2.84  94 2.86 123 2.87
                           142 2.87  74 2.88 143 2.90  95 2.93
 119  0.604  0.925  0.560- 124 2.70 144 2.78 143 2.79 118 2.81  99 2.83 123 2.84  75 2.84  76 2.88
                           120 2.90  95 2.92 115 2.94  96 2.94
 120  0.856  0.917  0.558-  96 2.67 124 2.73 116 2.76 141 2.77  93 2.83  76 2.85 144 2.85  73 2.89
                           119 2.90 121 2.91 117 2.93 100 3.02
 121  0.989  0.006  0.597-  97 2.69 141 2.80 117 2.85 124 2.86 100 2.86 122 2.88 120 2.91 125 3.06

 122  0.240  1.000  0.598- 123 2.71 118 2.73  98 2.79 142 2.83 117 2.83 121 2.88 126 2.93  97 2.93

 123  0.476  0.012  0.599- 122 2.71 127 2.76  98 2.80 119 2.84  99 2.85 118 2.87 143 3.01 124 3.03

 124  0.739  0.002  0.596- 144 2.69 119 2.70 100 2.71 120 2.73 121 2.86  99 2.90 128 2.99 123 3.03

 125  0.976  0.184  0.602- 129 2.69 104 2.78 126 2.89 128 2.89 101 2.99 100 3.01 121 3.06  97 3.10

 126  0.226  0.170  0.596- 102 2.77  97 2.79  98 2.80 101 2.86 125 2.89 122 2.93 130 2.99 127 3.03

 127  0.491  0.172  0.598- 128 2.68 123 2.76  99 2.80 131 2.83 103 2.84 102 2.86  98 2.97 126 3.03

 128  0.724  0.175  0.600- 127 2.68 132 2.74 125 2.89 100 2.90 103 2.92 104 2.93  99 2.97 124 2.99

 129  0.975  0.340  0.599- 125 2.69 108 2.80 104 2.83 132 2.83 133 2.85 105 2.87 101 2.94 130 3.04

 130  0.241  0.343  0.600- 131 2.76 106 2.81 105 2.89 102 2.92 126 2.99 134 2.99 101 3.04 129 3.04

 131  0.480  0.336  0.594- 106 2.71 103 2.73 102 2.75 130 2.76 107 2.77 127 2.83 132 2.85 135 2.87

 132  0.728  0.335  0.598- 128 2.74 129 2.83 108 2.84 131 2.85 103 2.85 104 2.89 107 2.90 136 2.93

 133  0.977  0.506  0.600- 136 2.77 137 2.78 112 2.82 129 2.85 105 2.87 108 2.91 109 2.91 134 2.99

 134  0.237  0.517  0.600- 138 2.71 110 2.74 109 2.86 135 2.95 106 2.96 133 2.99 130 2.99 105 3.00

 135  0.494  0.503  0.599- 111 2.76 136 2.77 107 2.85 131 2.87 106 2.89 110 2.94 134 2.95 139 2.96

 136  0.736  0.505  0.597- 111 2.77 133 2.77 135 2.77 108 2.77 112 2.79 107 2.90 140 2.91 132 2.93

 137  0.004  0.666  0.600- 138 2.73 133 2.78 109 2.79 112 2.90 113 2.93 140 2.97 116 2.99 141 3.05

 138  0.241  0.675  0.598- 134 2.71 110 2.73 137 2.73 139 2.74 142 2.76 114 2.80 113 2.89 109 2.97

 139  0.481  0.674  0.599- 138 2.74 143 2.80 110 2.82 115 2.88 111 2.90 114 2.91 135 2.96 140 3.02

 140  0.744  0.675  0.599- 112 2.78 116 2.81 115 2.89 136 2.91 144 2.96 137 2.97 111 2.98 139 3.02

 141  0.996  0.844  0.596- 117 2.63 120 2.77 116 2.77 121 2.80 113 2.82 142 2.82 137 3.05 144 3.11

 142  0.241  0.835  0.600- 138 2.76 114 2.79 141 2.82 122 2.83 143 2.84 118 2.87 117 2.92 113 2.96

 143  0.489  0.837  0.599- 144 2.71 119 2.79 139 2.80 142 2.84 115 2.85 114 2.89 118 2.90 123 3.01

 144  0.725  0.846  0.600- 124 2.69 143 2.71 119 2.78 120 2.85 115 2.94 140 2.96 116 3.04 141 3.11

 
  LATTYP: Found a simple orthorhombic cell.
 ALAT       =    11.4551298552
 B/A-ratio  =     1.5000000000
 C/A-ratio  =     4.3757688157
  
  Lattice vectors:
  
 A1 = (  11.4551298552,   0.0000000000,   0.0000000000)
 A2 = (   0.0000000000,  17.1826947828,   0.0000000000)
 A3 = (   0.0000000000,   0.0000000000,  50.1250000000)


Analysis of symmetry for initial positions (statically):
=====================================================================
 Subroutine PRICEL returns:
 Original cell was already a primitive cell.
 

 Routine SETGRP: Setting up the symmetry group for a 
 simple orthorhombic supercell.


 Subroutine GETGRP returns: Found  1 space group operations
 (whereof  1 operations were pure point group operations)
 out of a pool of  8 trial point group operations.


The static configuration has the point symmetry C_1 .


Analysis of symmetry for dynamics (positions and initial velocities):
=====================================================================
 Subroutine PRICEL returns:
 Original cell was already a primitive cell.
 

 Routine SETGRP: Setting up the symmetry group for a 
 simple orthorhombic supercell.


 Subroutine GETGRP returns: Found  1 space group operations
 (whereof  1 operations were pure point group operations)
 out of a pool of  8 trial point group operations.


The dynamic configuration has the point symmetry C_1 .


 Subroutine INISYM returns: Found  1 space group operations
 (whereof  1 operations are pure point group operations),
 and found     1 'primitive' translations

 
 
 KPOINTS: KPOINTS created by Atomic Simulation Env

Automatic generation of k-mesh.
Space group operators:
 irot       det(A)        alpha          n_x          n_y          n_z        tau_x        tau_y        tau_z
    1     1.000000     0.000000     1.000000     0.000000     0.000000     0.000000     0.000000     0.000000
 
 Subroutine IBZKPT returns following result:
 ===========================================
 
 Found      1 irreducible k-points:
 
 Following reciprocal coordinates:
            Coordinates               Weight
  0.000000  0.000000  0.000000      1.000000
 
 Following cartesian coordinates:
            Coordinates               Weight
  0.000000  0.000000  0.000000      1.000000
 


--------------------------------------------------------------------------------------------------------




 Dimension of arrays:
   k-points           NKPTS =      1   k-points in BZ     NKDIM =      1   number of bands    NBANDS=    304
   number of dos      NEDOS =    301   number of ions     NIONS =    144
   non local maximal  LDIM  =      4   non local SUM 2l+1 LMDIM =      8
   total plane-waves  NPLWV = 645120
   max r-space proj   IRMAX =      1   max aug-charges    IRDMAX=   2744
   dimension x,y,z NGX =    48 NGY =   70 NGZ =  192
   dimension x,y,z NGXF=    96 NGYF=  140 NGZF=  384
   support grid    NGXF=    96 NGYF=  140 NGZF=  384
   ions per type =             144
   NGX,Y,Z   is equivalent  to a cutoff of   6.97,  6.77,  6.37 a.u.
   NGXF,Y,Z  is equivalent  to a cutoff of  13.93, 13.55, 12.74 a.u.

 SYSTEM =  unknown system                          
 POSCAR =  Al                                      

 Startparameter for this run:
   NWRITE =      2    write-flag & timer
   PREC   = normal    normal or accurate (medium, high low for compatibility)
   ISTART =      1    job   : 0-new  1-cont  2-samecut
   ICHARG =      0    charge: 1-file 2-atom 10-const
   ISPIN  =      1    spin polarized calculation?
   LNONCOLLINEAR =      F non collinear calculations
   LSORBIT =      F    spin-orbit coupling
   INIWAV =      1    electr: 0-lowe 1-rand  2-diag
   LASPH  =      F    aspherical Exc in radial PAW
   METAGGA=      F    non-selfconsistent MetaGGA calc.

 Electronic Relaxation 1
   ENCUT  =  241.0 eV  17.71 Ry    4.21 a.u.  14.50 21.75 63.44*2*pi/ulx,y,z
   ENINI  =  241.0     initial cutoff
   ENAUG  =  291.1 eV  augmentation charge cutoff
   NELM   =     60;   NELMIN=  2; NELMDL=  0     # of ELM steps 
   EDIFF  = 0.1E-03   stopping-criterion for ELM
   LREAL  =      F    real-space projection
   NLSPLINE    = F    spline interpolate recip. space projectors
   LCOMPAT=      F    compatible to vasp.4.4
   GGA_COMPAT  = T    GGA compatible to vasp.4.4-vasp.4.6
   LMAXPAW     = -100 max onsite density
   LMAXMIX     =    2 max onsite mixed and CHGCAR
   VOSKOWN=      0    Vosko Wilk Nusair interpolation
   ROPT   =    0.00000
 Ionic relaxation
   EDIFFG = 0.1E-02   stopping-criterion for IOM
   NSW    =      0    number of steps for IOM
   NBLOCK =      1;   KBLOCK =      1    inner block; outer block 
   IBRION =     -1    ionic relax: 0-MD 1-quasi-New 2-CG
   NFREE  =      0    steps in history (QN), initial steepest desc. (CG)
   ISIF   =      2    stress and relaxation
   IWAVPR =     10    prediction:  0-non 1-charg 2-wave 3-comb
   ISYM   =      2    0-nonsym 1-usesym 2-fastsym
   LCORR  =      T    Harris-Foulkes like correction to forces

   POTIM  = 0.5000    time-step for ionic-motion
   TEIN   =    0.0    initial temperature
   TEBEG  =    0.0;   TEEND  =   0.0 temperature during run
   SMASS  =  -3.00    Nose mass-parameter (am)
   estimated Nose-frequenzy (Omega)   =  0.10E-29 period in steps =****** mass=  -0.300E-26a.u.
   SCALEE = 1.0000    scale energy and forces
   NPACO  =    256;   APACO  = 16.0  distance and # of slots for P.C.
   PSTRESS=    0.0 pullay stress

  Mass of Ions in am
   POMASS =  26.98
  Ionic Valenz
   ZVAL   =   3.00
  Atomic Wigner-Seitz radii
   RWIGS  =  -1.00
  virtual crystal weights 
   VCA    =   1.00
   NELECT =     432.0000    total number of electrons
   NUPDOWN=      -1.0000    fix difference up-down

 DOS related values:
   EMIN   =  10.00;   EMAX   =-10.00  energy-range for DOS
   EFERMI =   0.00
   ISMEAR =     1;   SIGMA  =   0.20  broadening in eV -4-tet -1-fermi 0-gaus

 Electronic relaxation 2 (details)
   IALGO  =     38    algorithm
   LDIAG  =      T    sub-space diagonalisation (order eigenvalues)
   LSUBROT=      F    optimize rotation matrix (better conditioning)
   TURBO    =      0    0=normal 1=particle mesh
   IRESTART =      0    0=no restart 2=restart with 2 vectors
   NREBOOT  =      0    no. of reboots
   NMIN     =      0    reboot dimension
   EREF     =   0.00    reference energy to select bands
   IMIX   =      4    mixing-type and parameters
     AMIX     =   0.40;   BMIX     =  1.00
     AMIX_MAG =   1.60;   BMIX_MAG =  1.00
     AMIN     =   0.10
     WC   =   100.;   INIMIX=   1;  MIXPRE=   1;  MAXMIX= -45

 Intra band minimization:
   WEIMIN = 0.0000     energy-eigenvalue tresh-hold
   EBREAK =  0.82E-07  absolut break condition
   DEPER  =   0.30     relativ break condition  

   TIME   =   0.40     timestep for ELM

  volume/ion in A,a.u.               =      68.51       462.36
  Fermi-wavevector in a.u.,A,eV,Ry     =   0.577016  1.090401  4.530018  0.332947
  Thomas-Fermi vector in A             =   1.619749
 
 Write flags
   LWAVE        =      T    write WAVECAR
   LDOWNSAMPLE  =      F    k-point downsampling of WAVECAR
   LCHARG       =      T    write CHGCAR
   LVTOT        =      F    write LOCPOT, total local potential
   LVHAR        =      F    write LOCPOT, Hartree potential only
   LELF         =      F    write electronic localiz. function (ELF)
   LORBIT       =      0    0 simple, 1 ext, 2 COOP (PROOUT), +10 PAW based schemes


 Dipole corrections
   LMONO  =      F    monopole corrections only (constant potential shift)
   LDIPOL =      F    correct potential (dipole corrections)
   IDIPOL =      0    1-x, 2-y, 3-z, 4-all directions 
   EPSILON=  1.0000000 bulk dielectric constant

 Exchange correlation treatment:
   GGA     =    --    GGA type
   LEXCH   =     2    internal setting for exchange type
   VOSKOWN=      0    Vosko Wilk Nusair interpolation
   LHFCALC =     F    Hartree Fock is set to
   LHFONE  =     F    Hartree Fock one center treatment
   AEXX    =    0.0000 exact exchange contribution

 Linear response parameters
   LEPSILON=     F    determine dielectric tensor
   LRPA    =     F    only Hartree local field effects (RPA)
   LNABLA  =     F    use nabla operator in PAW spheres
   LVEL    =     F    velocity operator in full k-point grid
   LINTERFAST=   F  fast interpolation
   KINTER  =     0    interpolate to denser k-point grid
   CSHIFT  =0.1000    complex shift for real part using Kramers Kronig
   OMEGAMAX=  -1.0    maximum frequency
   DEG_THRESHOLD= 0.2000000E-02 threshold for treating states as degnerate
   RTIME   =   -0.100 relaxation time in fs
  (WPLASMAI=    0.000 imaginary part of plasma frequency in eV, 0.658/RTIME)
   DFIELD  = 0.0000000 0.0000000 0.0000000 field for delta impulse in time
 
 Orbital magnetization related:
   ORBITALMAG=     F  switch on orbital magnetization
   LCHIMAG   =     F  perturbation theory with respect to B field
   DQ        =  0.001000  dq finite difference perturbation B field
   LLRAUG    =     F  two centre corrections for induced B field


 ----------------------------------------------------------------------------- 
|                                                                             |
|           W    W    AA    RRRRR   N    N  II  N    N   GGGG   !!!           |
|           W    W   A  A   R    R  NN   N  II  NN   N  G    G  !!!           |
|           W    W  A    A  R    R  N N  N  II  N N  N  G       !!!           |
|           W WW W  AAAAAA  RRRRR   N  N N  II  N  N N  G  GGG   !            |
|           WW  WW  A    A  R   R   N   NN  II  N   NN  G    G                |
|           W    W  A    A  R    R  N    N  II  N    N   GGGG   !!!           |
|                                                                             |
|      One of the lattice vectors is very long (>50 A), but AMIN is rather    |
|      large. This can spoil convergence since charge sloshing might occur    |
|      along the long lattice vector. If problems with convergence are        |
|      observed, try to decrease AMIN to a smaller values (e.g. 0.01).        |
|      Note: this warning only applies if the selfconsistency cycle is used.  |
|                                                                             |
 ----------------------------------------------------------------------------- 



--------------------------------------------------------------------------------------------------------


 Static calculation
 charge density and potential will be updated during run
 non-spin polarized calculation
 Variant of blocked Davidson
 Davidson routine will perform the subspace rotation
 perform sub-space diagonalisation
    after iterative eigenvector-optimisation
 modified Broyden-mixing scheme, WC =      100.0
 initial mixing is a Kerker type mixing with AMIX =  0.4000 and BMIX =      1.0000
 Hartree-type preconditioning will be used
 using additional bands           88
 reciprocal scheme for non local part
 use partial core corrections
 calculate Harris-corrections to forces 
   (improved forces if not selfconsistent)
 use of overlap-Matrix (Vanderbilt PP)
 Methfessel and Paxton  Order N= 1 SIGMA  =   0.20


--------------------------------------------------------------------------------------------------------


  energy-cutoff  :      240.96
  volume of cell :     9866.10
      direct lattice vectors                 reciprocal lattice vectors
    11.455129855  0.000000000  0.000000000     0.087297133  0.000000000  0.000000000
     0.000000000 17.182694783  0.000000000     0.000000000  0.058198089  0.000000000
     0.000000000  0.000000000 50.125000000     0.000000000  0.000000000  0.019950125

  length of vectors
    11.455129855 17.182694783 50.125000000     0.087297133  0.058198089  0.019950125


 
 old parameters found on file WAVECAR:
  energy-cutoff  :      240.96
  volume of cell :     9866.10
      direct lattice vectors                 reciprocal lattice vectors
    11.455129855  0.000000000  0.000000000     0.087297133  0.000000000  0.000000000
     0.000000000 17.182694783  0.000000000     0.000000000  0.058198089  0.000000000
     0.000000000  0.000000000 50.125000000     0.000000000  0.000000000  0.019950125

  length of vectors

 
 k-points in units of 2pi/SCALE and weight: KPOINTS created by Atomic Simulation Env
   0.00000000  0.00000000  0.00000000       1.000
 
 k-points in reciprocal lattice and weights: KPOINTS created by Atomic Simulation Env
   0.00000000  0.00000000  0.00000000       1.000
 
 position of ions in fractional coordinates (direct lattice) 
   0.10739743  0.08276600  0.39959804
   0.35791633  0.08526620  0.39749229
   0.60410427  0.09190591  0.39815204
   0.85751611  0.08885227  0.39966078
   0.11642476  0.24643962  0.39652191
   0.36444382  0.25851122  0.39773952
   0.61521420  0.25161411  0.39710813
   0.87094913  0.25768407  0.39614715
   0.11581762  0.42007924  0.40025383
   0.35791191  0.42654206  0.39706551
   0.61123596  0.42188104  0.39638097
   0.85920828  0.42612097  0.40013160
   0.11358228  0.58482913  0.39619287
   0.36387183  0.59170087  0.39739071
   0.62046486  0.58850266  0.39743512
   0.85804319  0.58516710  0.39968904
   0.10631288  0.75587775  0.39757479
   0.35771057  0.75461811  0.39862897
   0.60999720  0.75116231  0.39984632
   0.84988848  0.75416946  0.39709347
   0.08737212  0.91923028  0.39880576
   0.34661888  0.91968394  0.39868004
   0.60600904  0.91734323  0.39793666
   0.84779020  0.92618666  0.39597943
   0.97764569  0.00785203  0.43876759
   0.23490847  0.01147023  0.43948368
   0.48160316  0.00952373  0.43780452
   0.72783919  0.01116568  0.43762340
   0.98437670  0.17473578  0.43766061
   0.23637300  0.17464847  0.43701698
   0.48787595  0.17933999  0.43814590
   0.73814748  0.18094088  0.43796441
   0.99058275  0.33596726  0.43741469
   0.23340078  0.34018514  0.43662711
   0.48552218  0.34216460  0.43553253
   0.75207619  0.33685220  0.43811111
   0.99131029  0.50834960  0.43923749
   0.23257548  0.50652063  0.43757688
   0.49334497  0.51054270  0.43725207
   0.73770146  0.51276759  0.43830864
   0.98171129  0.66819629  0.43627637
   0.22909529  0.67307160  0.43768158
   0.49122158  0.67229096  0.43969389
   0.74456656  0.68182372  0.43761723
   0.98125687  0.84357921  0.43865706
   0.23671906  0.83955485  0.43771697
   0.48924674  0.83742813  0.43928671
   0.73260599  0.84539246  0.43764726
   0.10450606  0.09154922  0.47751146
   0.35826147  0.09188357  0.47823407
   0.60648591  0.08847937  0.47786540
   0.85696350  0.08444259  0.47804411
   0.09755948  0.25414768  0.47852306
   0.35186211  0.26412940  0.47643919
   0.61043042  0.26012947  0.47653085
   0.85579111  0.25326849  0.47910434
   0.09955253  0.42285389  0.47835042
   0.36168163  0.41925684  0.47584034
   0.60629719  0.42436435  0.47700186
   0.85467635  0.41941372  0.47856362
   0.11253458  0.59215605  0.47984149
   0.36380242  0.58703780  0.47663188
   0.60889866  0.59135342  0.48031907
   0.86123725  0.59118441  0.48067112
   0.11718210  0.75392016  0.47683788
   0.37008796  0.75080221  0.47943468
   0.62942508  0.75434239  0.47972374
   0.87503465  0.75853589  0.47683994
   0.11881418  0.92540929  0.47987183
   0.36043990  0.91874976  0.47809651
   0.60761963  0.92122493  0.47751545
   0.85394593  0.92469563  0.47859247
   0.98698909  0.00241383  0.51850616
   0.23345994  0.01005650  0.51940735
   0.47992629  0.00604988  0.52000934
   0.73211566  0.00416870  0.51919498
   0.98042446  0.16900949  0.51873848
   0.22494074  0.17723185  0.51775752
   0.47004300  0.17363143  0.51664055
   0.72587138  0.17011624  0.52000937
   0.98357023  0.34094750  0.51939545
   0.22594676  0.34171156  0.51818713
   0.47844812  0.33991889  0.51600842
   0.73045186  0.33575202  0.51801165
   0.97433819  0.50564184  0.51834596
   0.22839686  0.50362361  0.51679766
   0.47670372  0.50199946  0.51847616
   0.73136945  0.50678746  0.52011332
   0.98060678  0.67070963  0.51965207
   0.23791584  0.67228400  0.51898816
   0.48029751  0.67509150  0.51920813
   0.73604393  0.67239896  0.51833315
   0.98583313  0.83582699  0.51901082
   0.24068289  0.84015193  0.51689783
   0.48970966  0.83635016  0.51791025
   0.74141569  0.84061465  0.51999879
   0.09994684  0.08619815  0.55854763
   0.35111209  0.08633971  0.55785178
   0.60150647  0.08932616  0.55727971
   0.85224712  0.09236047  0.55939824
   0.10428187  0.25822253  0.55690606
   0.35395453  0.24997884  0.55857012
   0.60495479  0.25647037  0.55694212
   0.86389711  0.25171459  0.55890810
   0.10641354  0.42280479  0.55955538
   0.35722912  0.42253618  0.55891444
   0.60605786  0.41961932  0.55677014
   0.85356684  0.41840626  0.55880559
   0.10576149  0.58626143  0.55779802
   0.35637718  0.59181358  0.55997697
   0.60555034  0.58556310  0.55930068
   0.86154553  0.59226001  0.55970363
   0.11229054  0.75465747  0.55673997
   0.35509846  0.75938425  0.55811483
   0.61045681  0.75356465  0.55846125
   0.86816816  0.75603100  0.55955102
   0.11218347  0.91709708  0.55823522
   0.35869325  0.92130769  0.55881566
   0.60395160  0.92473246  0.56039775
   0.85640533  0.91658283  0.55822716
   0.98888677  0.00610915  0.59700773
   0.23998700  0.99957619  0.59754462
   0.47603634  0.01204011  0.59859100
   0.73946287  0.00224801  0.59558627
   0.97621033  0.18363175  0.60220452
   0.22611393  0.16959650  0.59649067
   0.49079465  0.17222924  0.59807883
   0.72433193  0.17547040  0.60026396
   0.97514292  0.34019344  0.59918168
   0.24053400  0.34285455  0.60003592
   0.48021405  0.33641565  0.59446977
   0.72814748  0.33496605  0.59830135
   0.97723471  0.50584737  0.59964353
   0.23739513  0.51711141  0.60000623
   0.49401104  0.50250969  0.59886950
   0.73571815  0.50544881  0.59686755
   0.00383044  0.66645722  0.60016427
   0.24147874  0.67494464  0.59814934
   0.48072701  0.67434660  0.59941921
   0.74447562  0.67464373  0.59920201
   0.99582909  0.84355045  0.59569755
   0.24112169  0.83529918  0.59989533
   0.48911881  0.83709363  0.59910597
   0.72515076  0.84639768  0.60023995
 
 position of ions in cartesian coordinates  (Angst):
   1.23025156  1.42214300 20.02985179
   4.09997803  1.46510301 19.92430114
   6.92009288  1.57919128 19.95737099
   9.82295840  1.52672151 20.03299669
   1.33366074  4.23449673 19.87566055
   4.17475126  4.44191948 19.93669321
   7.04735861  4.32340846 19.90504521
   9.97683542  4.42770678 19.85687593
   1.32670584  7.21809341 20.06272303
   4.09992743  7.32914200 19.90290863
   7.00178729  7.24905314 19.86859637
   9.84234240  7.32190657 20.05659641
   1.30109976 10.04894043 19.85916761
   4.16819907 10.16701551 19.91920941
   7.10750552 10.11206167 19.92143555
   9.82899616 10.05474774 20.03441323
   1.21782787 12.98801664 19.92843641
   4.09762105 12.96637275 19.98127687
   6.98759708 12.90699273 20.04229674
   9.73558290 12.95866369 19.90431036
   1.00085894 15.79485325 19.99013849
   3.97056425 15.80264837 19.98383721
   6.94191229 15.76242870 19.94657502
   9.71154682 15.91438262 19.84846874
  11.19905833  0.13491907 21.99322550
   2.69090698  0.19708946 22.02911961
   5.51682677  0.16364336 21.94495132
   8.33749246  0.19185645 21.93587282
  11.27616297  3.00243158 21.93773800
   2.70768340  3.00093137 21.90547612
   5.58868235  3.08154429 21.96206333
   8.45557522  3.10905195 21.95296601
  11.34725409  5.77282293 21.92541113
   2.67363622  5.84529742 21.88593392
   5.56171957  5.87930984 21.83106818
   8.61513041  5.78802848 21.96031948
  11.35558808  8.73481605 22.01677924
   2.66418229  8.70338937 21.93354121
   5.65133068  8.77249938 21.91725992
   8.45046604  8.81072902 21.97022035
  11.24563036 11.48141288 21.86835308
   2.62431634 11.56518391 21.93878899
   5.62700702 11.55177037 22.03965645
   8.52910664 11.71556893 21.93556354
  11.24042486 14.49496412 21.98768500
   2.71164757 14.42581479 21.94056323
   5.60438496 14.38927196 22.01924655
   8.39209676 14.52612068 21.93706888
   1.19713054  1.57306237 23.93526185
   4.10393168  1.57880726 23.97148297
   6.94737483  1.52031393 23.95300296
   9.81662819  1.45095128 23.96196111
   1.11755654  4.36694209 23.98596829
   4.03062616  4.53845480 23.88151436
   6.99255975  4.46972525 23.88610901
   9.80319827  4.35183523 24.01510506
   1.14038720  7.26576927 23.97731469
   4.14311004  7.20396226 23.85149686
   6.94521303  7.29172316 23.90971808
   9.79042861  7.20665794 23.98800124
   1.28909823 10.17483663 24.05205491
   4.16740398 10.08689132 23.89117278
   6.97501321 10.16104534 24.07599326
   9.86558452 10.15814120 24.09363999
   1.34233616 12.95437994 23.90149893
   4.23940569 12.90080515 24.03166343
   7.21014601 12.96163505 24.04615235
  10.02363554 13.03369070 23.90160175
   1.36103191 15.90102541 24.05357547
   4.12888584 15.78659666 23.96458767
   6.96036176 15.82912688 23.93546193
   9.78206154 15.88876280 23.98944744
  11.30608822  0.04147609 25.99012107
   2.67431391  0.17279773 26.03529336
   5.49761794  0.10395330 26.06546805
   8.38647995  0.07162945 26.02464815
  11.23088949  2.90403854 26.00176630
   2.57672533  3.04532074 25.95259588
   5.38440362  2.98345581 25.89660750
   8.31495091  2.92305541 26.06546947
  11.26692473  5.85839687 26.03469710
   2.58824950  5.87152548 25.97413007
   5.48068530  5.84072257 25.86492222
   8.36742096  5.76912450 25.96533392
  11.16117046  8.68828940 25.98209139
   2.61631570  8.65361071 25.90448252
   5.46070306  8.62570357 25.98861732
   8.37793206  8.70797419 26.07068024
  11.23297800 11.52459884 26.04755977
   2.72535686 11.55165086 26.01428161
   5.50187036 11.59989128 26.02530772
   8.43147879 11.55362606 25.98144934
  11.29284650 14.36176010 26.01541715
   2.75705380 14.43607412 25.90950398
   5.60968772 14.37074946 25.96025118
   8.49301300 14.44402493 26.06493951
   1.14490398  1.48111653 27.99719971
   4.02203464  1.48354886 27.96232059
   6.89033471  1.53486410 27.93364529
   9.76260144  1.58700172 28.03983681
   1.19456239  4.43695883 27.91491622
   4.05459512  4.29531012 27.99832730
   6.92983562  4.40685205 27.91672376
   9.89605363  4.32513490 28.01526837
   1.21898091  7.26492562 28.04771325
   4.09210600  7.26031023 28.01558608
   6.94247149  7.21019065 27.90810348
   9.77771902  7.18934699 28.01013043
   1.21151157 10.07355129 27.95962564
   4.08234687 10.16895209 28.06884582
   6.93665777 10.06155198 28.03494674
   9.86911593 10.17662303 28.05514438
   1.28630269 12.96704899 27.90659075
   4.06769895 13.04826784 27.97550597
   6.99286203 12.94827133 27.99287030
   9.94497899 12.99064987 28.04749492
   1.28507618 15.75819926 27.98154024
   4.10887774 15.83054879 28.01063474
   6.91834397 15.88939561 28.08993706
   9.81023430 15.74936308 27.98113620
  11.32782638  0.10497171 29.92501232
   2.74908227 17.17541255 29.95192395
   5.45305807  0.20688153 30.00437377
   8.47064319  0.03862693 29.85376197
  11.18261605  3.15528824 30.18550156
   2.59016446  2.91412487 29.89909507
   5.62211644  2.95936239 29.97870140
   8.29731628  3.01505427 30.08823113
  11.17038875  5.84543998 30.03398165
   2.75534825  5.89116516 30.07680066
   5.50091427  5.78052736 29.79779706
   8.34102392  5.75561934 29.98985503
  11.19435049  8.69182094 30.05713186
   2.71939198  8.88536746 30.07531240
   5.65896063  8.63447067 30.01833357
   8.42774693  8.68497257 29.91798580
   0.04387824 11.45153091 30.08323420
   2.76617031 11.59736783 29.98223592
   5.50679037 11.58709176 30.04588790
   8.52806491 11.59219736 30.03500053
  11.40735155 14.49446993 29.85933955
   2.76208032 14.35269086 30.06975325
   5.60291946 14.38352434 30.03018683
   8.30669610 14.54339297 30.08702759
 


--------------------------------------------------------------------------------------------------------


 k-point  1 :   0.0000 0.0000 0.0000  plane waves:   83813

 maximum and minimum number of plane-waves per node :     20956    20951

 maximum number of plane-waves:     83813
 maximum index in each direction: 
   IXMAX=   14   IYMAX=   21   IZMAX=   63
   IXMIN=  -14   IYMIN=  -21   IZMIN=  -63


 parallel 3D FFT for wavefunctions:
    minimum data exchange during FFTs selected (reduces bandwidth)
 parallel 3D FFT for charge:
    minimum data exchange during FFTs selected (reduces bandwidth)


 total amount of memory used by VASP MPI-rank0   112294. kBytes
=======================================================================

   base      :      30000. kBytes
   nonl-proj :      49633. kBytes
   fftplans  :      12330. kBytes
   grid      :      13762. kBytes
   one-center:        110. kBytes
   wavefun   :       6459. kBytes
 
     INWAV:  cpu time    1.1495: real time    1.1485
 Broyden mixing: mesh for mixing (old mesh)
   NGX = 29   NGY = 43   NGZ =127
  (NGX  = 96   NGY  =140   NGZ  =384)
  gives a total of 158369 points

 charge density for first step will be calculated from the start-wavefunctions


--------------------------------------------------------------------------------------------------------


 Maximum index for augmentation-charges          214 (set IRDMAX)


--------------------------------------------------------------------------------------------------------


 initial charge from wavefunction
 First call to EWALD:  gamma=   0.083
 Maximum number of real-space cells 5x 3x 1
 Maximum number of reciprocal cells 2x 2x 6

    FEWALD:  cpu time    0.0041: real time    0.0044


--------------------------------------- Iteration      1(   1)  ---------------------------------------


    POTLOK:  cpu time    0.0468: real time    0.0517
    SETDIJ:  cpu time    0.0038: real time    0.0038
     EDDAV:  cpu time    5.3632: real time    5.3592
       DOS:  cpu time    0.0010: real time    0.0010
    CHARGE:  cpu time    0.1336: real time    0.1334
    MIXING:  cpu time    0.0037: real time    0.0037
    --------------------------------------------
      LOOP:  cpu time    5.5521: real time    5.5527

 eigenvalue-minimisations  :   704
 total energy-change (2. order) :-0.7575272E+03  (-0.1116709E+03)
 number of electron     431.9999995 magnetization 
 augmentation part       -7.1625241 magnetization 

 Broyden mixing:
  rms(total) = 0.42294E+01    rms(broyden)= 0.42294E+01
  rms(prec ) = 0.55122E+01
  weight for this iteration     100.00

 Free energy of the ion-electron system (eV)
  ---------------------------------------------------
  alpha Z        PSCENC =        -7.11520446
  Ewald energy   TEWEN  =    197777.88273257
  -Hartree energ DENC   =   -204335.32720839
  -exchange      EXHF   =         0.00000000
  -V(xc)+E(xc)   XCENC  =     -3668.63163446
  PAW double counting   =     33752.25397117   -29283.39145740
  entropy T*S    EENTRO =        -0.06048081
  eigenvalues    EBANDS =     -2738.88281362
  atomic energy  EATOM  =      7745.74488383
  Solvation  Ediel_sol  =         0.00000000
  ---------------------------------------------------
  free energy    TOTEN  =      -757.52721157 eV

  energy without entropy =     -757.46673075  energy(sigma->0) =     -757.50705130


--------------------------------------------------------------------------------------------------------




--------------------------------------- Iteration      1(   2)  ---------------------------------------


    POTLOK:  cpu time    0.0442: real time    0.0449
    SETDIJ:  cpu time    0.0037: real time    0.0037
     EDDAV:  cpu time    7.2283: real time    7.2231
       DOS:  cpu time    0.0004: real time    0.0004
    CHARGE:  cpu time    0.1349: real time    0.1348
    MIXING:  cpu time    0.0039: real time    0.0039
    --------------------------------------------
      LOOP:  cpu time    7.4156: real time    7.4108

 eigenvalue-minimisations  :  1008
 total energy-change (2. order) :-0.4582109E+03  (-0.4119130E+03)
 number of electron     432.0000001 magnetization 
 augmentation part       -7.0903047 magnetization 

 Broyden mixing:
  rms(total) = 0.57037E+01    rms(broyden)= 0.57036E+01
  rms(prec ) = 0.11527E+02
  weight for this iteration     100.00

 eigenvalues of (default mixing * dielectric matrix)
  average eigenvalue GAMMA=   0.4576
  0.4576

 Free energy of the ion-electron system (eV)
  ---------------------------------------------------
  alpha Z        PSCENC =        -7.11520446
  Ewald energy   TEWEN  =    197777.88273257
  -Hartree energ DENC   =   -204203.69981879
  -exchange      EXHF   =         0.00000000
  -V(xc)+E(xc)   XCENC  =     -3668.95853088
  PAW double counting   =     30177.97019807   -25709.60859884
  entropy T*S    EENTRO =        -0.01762665
  eigenvalues    EBANDS =     -3327.93616268
  atomic energy  EATOM  =      7745.74488383
  Solvation  Ediel_sol  =         0.00000000
  ---------------------------------------------------
  free energy    TOTEN  =     -1215.73812781 eV

  energy without entropy =    -1215.72050117  energy(sigma->0) =    -1215.73225226


--------------------------------------------------------------------------------------------------------




--------------------------------------- Iteration      1(   3)  ---------------------------------------


    POTLOK:  cpu time    0.0442: real time    0.0449
    SETDIJ:  cpu time    0.0037: real time    0.0037
     EDDAV:  cpu time    6.9189: real time    6.9134
       DOS:  cpu time    0.0005: real time    0.0005
    CHARGE:  cpu time    0.1344: real time    0.1343
    MIXING:  cpu time    0.0040: real time    0.0040
    --------------------------------------------
      LOOP:  cpu time    7.1057: real time    7.1008

 eigenvalue-minimisations  :   960
 total energy-change (2. order) : 0.5859317E+03  (-0.4007198E+03)
 number of electron     432.0000000 magnetization 
 augmentation part       -7.3565744 magnetization 

 Broyden mixing:
  rms(total) = 0.29624E+01    rms(broyden)= 0.29624E+01
  rms(prec ) = 0.51497E+01
  weight for this iteration     100.00

 eigenvalues of (default mixing * dielectric matrix)
  average eigenvalue GAMMA=   0.5426
  0.8889  0.1964

 Free energy of the ion-electron system (eV)
  ---------------------------------------------------
  alpha Z        PSCENC =        -7.11520446
  Ewald energy   TEWEN  =    197777.88273257
  -Hartree energ DENC   =   -204069.79157675
  -exchange      EXHF   =         0.00000000
  -V(xc)+E(xc)   XCENC  =     -3669.60646526
  PAW double counting   =     30511.72217582   -26043.06857048
  entropy T*S    EENTRO =        -0.07058765
  eigenvalues    EBANDS =     -2875.50384935
  atomic energy  EATOM  =      7745.74488383
  Solvation  Ediel_sol  =         0.00000000
  ---------------------------------------------------
  free energy    TOTEN  =      -629.80646173 eV

  energy without entropy =     -629.73587408  energy(sigma->0) =     -629.78293252


--------------------------------------------------------------------------------------------------------




--------------------------------------- Iteration      1(   4)  ---------------------------------------


    POTLOK:  cpu time    0.0447: real time    0.0454
    SETDIJ:  cpu time    0.0037: real time    0.0037
     EDDAV:  cpu time    6.2248: real time    6.2198
       DOS:  cpu time    0.0005: real time    0.0005
    CHARGE:  cpu time    0.1333: real time    0.1332
    MIXING:  cpu time    0.0041: real time    0.0041
    --------------------------------------------
      LOOP:  cpu time    6.4112: real time    6.4066

 eigenvalue-minimisations  :   848
 total energy-change (2. order) : 0.6586563E+02  (-0.7549243E+02)
 number of electron     432.0000000 magnetization 
 augmentation part       -7.4581869 magnetization 

 Broyden mixing:
  rms(total) = 0.20929E+01    rms(broyden)= 0.20928E+01
  rms(prec ) = 0.23147E+01
  weight for this iteration     100.00

 eigenvalues of (default mixing * dielectric matrix)
  average eigenvalue GAMMA=   0.4931
  0.9871  0.2462  0.2462

 Free energy of the ion-electron system (eV)
  ---------------------------------------------------
  alpha Z        PSCENC =        -7.11520446
  Ewald energy   TEWEN  =    197777.88273257
  -Hartree energ DENC   =   -204161.12901727
  -exchange      EXHF   =         0.00000000
  -V(xc)+E(xc)   XCENC  =     -3669.71613145
  PAW double counting   =     29096.96608286   -24628.13746863
  entropy T*S    EENTRO =         0.17285190
  eigenvalues    EBANDS =     -2718.60956373
  atomic energy  EATOM  =      7745.74488383
  Solvation  Ediel_sol  =         0.00000000
  ---------------------------------------------------
  free energy    TOTEN  =      -563.94083437 eV

  energy without entropy =     -564.11368627  energy(sigma->0) =     -563.99845167


--------------------------------------------------------------------------------------------------------




--------------------------------------- Iteration      1(   5)  ---------------------------------------


    POTLOK:  cpu time    0.0434: real time    0.0433
    SETDIJ:  cpu time    0.0037: real time    0.0036
     EDDAV:  cpu time    5.9322: real time    5.9272
       DOS:  cpu time    0.0005: real time    0.0005
    CHARGE:  cpu time    0.1333: real time    0.1332
    MIXING:  cpu time    0.0042: real time    0.0042
    --------------------------------------------
      LOOP:  cpu time    6.1172: real time    6.1120

 eigenvalue-minimisations  :   800
 total energy-change (2. order) :-0.8724113E+01  (-0.2295669E+02)
 number of electron     431.9999999 magnetization 
 augmentation part       -7.4624943 magnetization 

 Broyden mixing:
  rms(total) = 0.15528E+01    rms(broyden)= 0.15528E+01
  rms(prec ) = 0.16099E+01
  weight for this iteration     100.00

 eigenvalues of (default mixing * dielectric matrix)
  average eigenvalue GAMMA=   0.5893
  1.0508  0.5582  0.5582  0.1901

 Free energy of the ion-electron system (eV)
  ---------------------------------------------------
  alpha Z        PSCENC =        -7.11520446
  Ewald energy   TEWEN  =    197777.88273257
  -Hartree energ DENC   =   -204262.92163386
  -exchange      EXHF   =         0.00000000
  -V(xc)+E(xc)   XCENC  =     -3669.63171603
  PAW double counting   =     27068.17140988   -22599.52661244
  entropy T*S    EENTRO =         0.05702100
  eigenvalues    EBANDS =     -2625.32582762
  atomic energy  EATOM  =      7745.74488383
  Solvation  Ediel_sol  =         0.00000000
  ---------------------------------------------------
  free energy    TOTEN  =      -572.66494713 eV

  energy without entropy =     -572.72196813  energy(sigma->0) =     -572.68395413


--------------------------------------------------------------------------------------------------------




--------------------------------------- Iteration      1(   6)  ---------------------------------------


    POTLOK:  cpu time    0.0434: real time    0.0434
    SETDIJ:  cpu time    0.0036: real time    0.0036
     EDDAV:  cpu time    6.2343: real time    6.2292
       DOS:  cpu time    0.0005: real time    0.0004
    CHARGE:  cpu time    0.1344: real time    0.1342
    MIXING:  cpu time    0.0046: real time    0.0046
    --------------------------------------------
      LOOP:  cpu time    6.4208: real time    6.4154

 eigenvalue-minimisations  :   848
 total energy-change (2. order) :-0.1532055E+01  (-0.2510695E+01)
 number of electron     431.9999999 magnetization 
 augmentation part       -7.3589302 magnetization 

 Broyden mixing:
  rms(total) = 0.88930E+00    rms(broyden)= 0.88930E+00
  rms(prec ) = 0.99974E+00
  weight for this iteration     100.00

 eigenvalues of (default mixing * dielectric matrix)
  average eigenvalue GAMMA=   0.7687
  1.3205  0.9510  0.9510  0.1961  0.4251

 Free energy of the ion-electron system (eV)
  ---------------------------------------------------
  alpha Z        PSCENC =        -7.11520446
  Ewald energy   TEWEN  =    197777.88273257
  -Hartree energ DENC   =   -204276.60706711
  -exchange      EXHF   =         0.00000000
  -V(xc)+E(xc)   XCENC  =     -3669.67692926
  PAW double counting   =     24588.85122678   -20120.52793182
  entropy T*S    EENTRO =         0.04293891
  eigenvalues    EBANDS =     -2612.79165168
  atomic energy  EATOM  =      7745.74488383
  Solvation  Ediel_sol  =         0.00000000
  ---------------------------------------------------
  free energy    TOTEN  =      -574.19700223 eV

  energy without entropy =     -574.23994115  energy(sigma->0) =     -574.21131520


--------------------------------------------------------------------------------------------------------




--------------------------------------- Iteration      1(   7)  ---------------------------------------


    POTLOK:  cpu time    0.0445: real time    0.0446
    SETDIJ:  cpu time    0.0037: real time    0.0037
     EDDAV:  cpu time    5.8394: real time    5.8341
       DOS:  cpu time    0.0005: real time    0.0005
    CHARGE:  cpu time    0.1328: real time    0.1326
    MIXING:  cpu time    0.0046: real time    0.0046
    --------------------------------------------
      LOOP:  cpu time    6.0254: real time    6.0200

 eigenvalue-minimisations  :   784
 total energy-change (2. order) : 0.1776818E+01  (-0.2675958E+00)
 number of electron     431.9999999 magnetization 
 augmentation part       -7.3169033 magnetization 

 Broyden mixing:
  rms(total) = 0.42368E+00    rms(broyden)= 0.42368E+00
  rms(prec ) = 0.43105E+00
  weight for this iteration     100.00

 eigenvalues of (default mixing * dielectric matrix)
  average eigenvalue GAMMA=   0.9099
  1.6865  1.6865  0.1960  0.7203  0.7203  0.4497

 Free energy of the ion-electron system (eV)
  ---------------------------------------------------
  alpha Z        PSCENC =        -7.11520446
  Ewald energy   TEWEN  =    197777.88273257
  -Hartree energ DENC   =   -204331.93067940
  -exchange      EXHF   =         0.00000000
  -V(xc)+E(xc)   XCENC  =     -3669.60772729
  PAW double counting   =     23235.26500334   -18767.48754453
  entropy T*S    EENTRO =         0.05891375
  eigenvalues    EBANDS =     -2555.23056170
  atomic energy  EATOM  =      7745.74488383
  Solvation  Ediel_sol  =         0.00000000
  ---------------------------------------------------
  free energy    TOTEN  =      -572.42018389 eV

  energy without entropy =     -572.47909764  energy(sigma->0) =     -572.43982180


--------------------------------------------------------------------------------------------------------




--------------------------------------- Iteration      1(   8)  ---------------------------------------


    POTLOK:  cpu time    0.0430: real time    0.0430
    SETDIJ:  cpu time    0.0036: real time    0.0036
     EDDAV:  cpu time    5.4498: real time    5.4448
       DOS:  cpu time    0.0005: real time    0.0005
    CHARGE:  cpu time    0.1328: real time    0.1326
    MIXING:  cpu time    0.0048: real time    0.0048
    --------------------------------------------
      LOOP:  cpu time    5.6345: real time    5.6293

 eigenvalue-minimisations  :   720
 total energy-change (2. order) :-0.2534005E-02  (-0.1576284E+00)
 number of electron     431.9999999 magnetization 
 augmentation part       -7.2784157 magnetization 

 Broyden mixing:
  rms(total) = 0.22567E+00    rms(broyden)= 0.22567E+00
  rms(prec ) = 0.24836E+00
  weight for this iteration     100.00

 eigenvalues of (default mixing * dielectric matrix)
  average eigenvalue GAMMA=   0.9286
  2.1362  1.4778  0.1960  0.8055  0.8055  0.4324  0.6469

 Free energy of the ion-electron system (eV)
  ---------------------------------------------------
  alpha Z        PSCENC =        -7.11520446
  Ewald energy   TEWEN  =    197777.88273257
  -Hartree energ DENC   =   -204370.35845852
  -exchange      EXHF   =         0.00000000
  -V(xc)+E(xc)   XCENC  =     -3669.47033599
  PAW double counting   =     22698.23792325   -18230.70480303
  entropy T*S    EENTRO =         0.03088208
  eigenvalues    EBANDS =     -2516.67033762
  atomic energy  EATOM  =      7745.74488383
  Solvation  Ediel_sol  =         0.00000000
  ---------------------------------------------------
  free energy    TOTEN  =      -572.42271789 eV

  energy without entropy =     -572.45359997  energy(sigma->0) =     -572.43301192


--------------------------------------------------------------------------------------------------------




--------------------------------------- Iteration      1(   9)  ---------------------------------------


    POTLOK:  cpu time    0.0432: real time    0.0431
    SETDIJ:  cpu time    0.0037: real time    0.0037
     EDDAV:  cpu time    5.6435: real time    5.6382
       DOS:  cpu time    0.0005: real time    0.0005
    CHARGE:  cpu time    0.1328: real time    0.1327
    MIXING:  cpu time    0.0051: real time    0.0053
    --------------------------------------------
      LOOP:  cpu time    5.8287: real time    5.8234

 eigenvalue-minimisations  :   752
 total energy-change (2. order) : 0.1015786E+00  (-0.4257283E-01)
 number of electron     431.9999999 magnetization 
 augmentation part       -7.2642253 magnetization 

 Broyden mixing:
  rms(total) = 0.13205E+00    rms(broyden)= 0.13205E+00
  rms(prec ) = 0.13623E+00
  weight for this iteration     100.00

 eigenvalues of (default mixing * dielectric matrix)
  average eigenvalue GAMMA=   0.9805
  2.0076  2.0076  0.1960  0.9474  0.9474  0.4343  0.6518  0.6518

 Free energy of the ion-electron system (eV)
  ---------------------------------------------------
  alpha Z        PSCENC =        -7.11520446
  Ewald energy   TEWEN  =    197777.88273257
  -Hartree energ DENC   =   -204383.64977301
  -exchange      EXHF   =         0.00000000
  -V(xc)+E(xc)   XCENC  =     -3669.39382761
  PAW double counting   =     22681.86597522   -18214.36240141
  entropy T*S    EENTRO =         0.03289013
  eigenvalues    EBANDS =     -2503.32641456
  atomic energy  EATOM  =      7745.74488383
  Solvation  Ediel_sol  =         0.00000000
  ---------------------------------------------------
  free energy    TOTEN  =      -572.32113930 eV

  energy without entropy =     -572.35402943  energy(sigma->0) =     -572.33210268


--------------------------------------------------------------------------------------------------------




--------------------------------------- Iteration      1(  10)  ---------------------------------------


    POTLOK:  cpu time    0.0436: real time    0.0440
    SETDIJ:  cpu time    0.0035: real time    0.0035
     EDDAV:  cpu time    6.0419: real time    6.0366
       DOS:  cpu time    0.0005: real time    0.0005
    CHARGE:  cpu time    0.1331: real time    0.1329
    MIXING:  cpu time    0.0055: real time    0.0055
    --------------------------------------------
      LOOP:  cpu time    6.2281: real time    6.2230

 eigenvalue-minimisations  :   816
 total energy-change (2. order) :-0.8409910E-02  (-0.1448822E-01)
 number of electron     431.9999999 magnetization 
 augmentation part       -7.2501874 magnetization 

 Broyden mixing:
  rms(total) = 0.12084E+00    rms(broyden)= 0.12084E+00
  rms(prec ) = 0.12484E+00
  weight for this iteration     100.00

 eigenvalues of (default mixing * dielectric matrix)
  average eigenvalue GAMMA=   0.9634
  2.1991  2.1991  0.9609  0.9609  0.1960  0.6529  0.6529  0.4247  0.4247

 Free energy of the ion-electron system (eV)
  ---------------------------------------------------
  alpha Z        PSCENC =        -7.11520446
  Ewald energy   TEWEN  =    197777.88273257
  -Hartree energ DENC   =   -204400.00251165
  -exchange      EXHF   =         0.00000000
  -V(xc)+E(xc)   XCENC  =     -3669.32115531
  PAW double counting   =     22952.91503148   -18485.37761070
  entropy T*S    EENTRO =         0.02967849
  eigenvalues    EBANDS =     -2487.08539346
  atomic energy  EATOM  =      7745.74488383
  Solvation  Ediel_sol  =         0.00000000
  ---------------------------------------------------
  free energy    TOTEN  =      -572.32954921 eV

  energy without entropy =     -572.35922770  energy(sigma->0) =     -572.33944204


--------------------------------------------------------------------------------------------------------




--------------------------------------- Iteration      1(  11)  ---------------------------------------


    POTLOK:  cpu time    0.0445: real time    0.0449
    SETDIJ:  cpu time    0.0037: real time    0.0037
     EDDAV:  cpu time    5.8491: real time    5.8436
       DOS:  cpu time    0.0005: real time    0.0005
    CHARGE:  cpu time    0.1324: real time    0.1322
    MIXING:  cpu time    0.0057: real time    0.0057
    --------------------------------------------
      LOOP:  cpu time    6.0358: real time    6.0307

 eigenvalue-minimisations  :   784
 total energy-change (2. order) : 0.2786650E-03  (-0.5250059E-02)
 number of electron     431.9999999 magnetization 
 augmentation part       -7.2445480 magnetization 

 Broyden mixing:
  rms(total) = 0.10516E+00    rms(broyden)= 0.10516E+00
  rms(prec ) = 0.10629E+00
  weight for this iteration     100.00

 eigenvalues of (default mixing * dielectric matrix)
  average eigenvalue GAMMA=   1.0583
  2.5307  2.5307  1.2829  0.8660  0.8660  0.9116  0.1960  0.5905  0.4339  0.3749

 Free energy of the ion-electron system (eV)
  ---------------------------------------------------
  alpha Z        PSCENC =        -7.11520446
  Ewald energy   TEWEN  =    197777.88273257
  -Hartree energ DENC   =   -204405.50773845
  -exchange      EXHF   =         0.00000000
  -V(xc)+E(xc)   XCENC  =     -3669.27223082
  PAW double counting   =     23181.63873064   -18714.08475375
  entropy T*S    EENTRO =         0.02835840
  eigenvalues    EBANDS =     -2481.64404851
  atomic energy  EATOM  =      7745.74488383
  Solvation  Ediel_sol  =         0.00000000
  ---------------------------------------------------
  free energy    TOTEN  =      -572.32927055 eV

  energy without entropy =     -572.35762895  energy(sigma->0) =     -572.33872335


--------------------------------------------------------------------------------------------------------




--------------------------------------- Iteration      1(  12)  ---------------------------------------


    POTLOK:  cpu time    0.0434: real time    0.0433
    SETDIJ:  cpu time    0.0036: real time    0.0036
     EDDAV:  cpu time    5.5942: real time    5.5887
       DOS:  cpu time    0.0005: real time    0.0005
    CHARGE:  cpu time    0.1355: real time    0.1353
    MIXING:  cpu time    0.0061: real time    0.0061
    --------------------------------------------
      LOOP:  cpu time    5.7833: real time    5.7775

 eigenvalue-minimisations  :   752
 total energy-change (2. order) :-0.9166303E-02  (-0.1994762E-02)
 number of electron     431.9999999 magnetization 
 augmentation part       -7.2391768 magnetization 

 Broyden mixing:
  rms(total) = 0.71974E-01    rms(broyden)= 0.71974E-01
  rms(prec ) = 0.72849E-01
  weight for this iteration     100.00

 eigenvalues of (default mixing * dielectric matrix)
  average eigenvalue GAMMA=   1.0794
  2.4683  2.4683  1.8913  0.9459  0.9459  0.1960  0.8522  0.6375  0.6375  0.4344
  0.3962

 Free energy of the ion-electron system (eV)
  ---------------------------------------------------
  alpha Z        PSCENC =        -7.11520446
  Ewald energy   TEWEN  =    197777.88273257
  -Hartree energ DENC   =   -204413.86735886
  -exchange      EXHF   =         0.00000000
  -V(xc)+E(xc)   XCENC  =     -3669.19103823
  PAW double counting   =     23584.29510540   -19116.73045684
  entropy T*S    EENTRO =         0.02794966
  eigenvalues    EBANDS =     -2473.38504992
  atomic energy  EATOM  =      7745.74488383
  Solvation  Ediel_sol  =         0.00000000
  ---------------------------------------------------
  free energy    TOTEN  =      -572.33843685 eV

  energy without entropy =     -572.36638651  energy(sigma->0) =     -572.34775340


--------------------------------------------------------------------------------------------------------




--------------------------------------- Iteration      1(  13)  ---------------------------------------


    POTLOK:  cpu time    0.0433: real time    0.0434
    SETDIJ:  cpu time    0.0035: real time    0.0035
     EDDAV:  cpu time    5.5654: real time    5.5601
       DOS:  cpu time    0.0005: real time    0.0005
    CHARGE:  cpu time    0.1351: real time    0.1350
    MIXING:  cpu time    0.0061: real time    0.0061
    --------------------------------------------
      LOOP:  cpu time    5.7540: real time    5.7487

 eigenvalue-minimisations  :   752
 total energy-change (2. order) :-0.6668799E-02  (-0.8716472E-03)
 number of electron     431.9999999 magnetization 
 augmentation part       -7.2372147 magnetization 

 Broyden mixing:
  rms(total) = 0.39849E-01    rms(broyden)= 0.39849E-01
  rms(prec ) = 0.40720E-01
  weight for this iteration     100.00

 eigenvalues of (default mixing * dielectric matrix)
  average eigenvalue GAMMA=   1.1136
  2.5890  2.5890  2.0799  1.1382  1.1382  0.1960  0.7554  0.7554  0.6439  0.6439
  0.4356  0.3991

 Free energy of the ion-electron system (eV)
  ---------------------------------------------------
  alpha Z        PSCENC =        -7.11520446
  Ewald energy   TEWEN  =    197777.88273257
  -Hartree energ DENC   =   -204423.59518574
  -exchange      EXHF   =         0.00000000
  -V(xc)+E(xc)   XCENC  =     -3669.14381606
  PAW double counting   =     23851.97754740   -19384.41541635
  entropy T*S    EENTRO =         0.02790647
  eigenvalues    EBANDS =     -2463.70855331
  atomic energy  EATOM  =      7745.74488383
  Solvation  Ediel_sol  =         0.00000000
  ---------------------------------------------------
  free energy    TOTEN  =      -572.34510565 eV

  energy without entropy =     -572.37301212  energy(sigma->0) =     -572.35440780


--------------------------------------------------------------------------------------------------------




--------------------------------------- Iteration      1(  14)  ---------------------------------------


    POTLOK:  cpu time    0.0447: real time    0.0456
    SETDIJ:  cpu time    0.0035: real time    0.0035
     EDDAV:  cpu time    5.6255: real time    5.6198
       DOS:  cpu time    0.0005: real time    0.0005
    CHARGE:  cpu time    0.1359: real time    0.1357
    MIXING:  cpu time    0.0076: real time    0.0076
    --------------------------------------------
      LOOP:  cpu time    5.8178: real time    5.8127

 eigenvalue-minimisations  :   768
 total energy-change (2. order) :-0.4363786E-02  (-0.3275779E-03)
 number of electron     431.9999999 magnetization 
 augmentation part       -7.2368632 magnetization 

 Broyden mixing:
  rms(total) = 0.21834E-01    rms(broyden)= 0.21834E-01
  rms(prec ) = 0.22673E-01
  weight for this iteration     100.00

 eigenvalues of (default mixing * dielectric matrix)
  average eigenvalue GAMMA=   1.1377
  2.7323  2.7323  2.2974  1.3004  0.1960  0.9269  0.9269  0.8270  0.8270  0.5949
  0.5949  0.4350  0.3988

 Free energy of the ion-electron system (eV)
  ---------------------------------------------------
  alpha Z        PSCENC =        -7.11520446
  Ewald energy   TEWEN  =    197777.88273257
  -Hartree energ DENC   =   -204424.58328577
  -exchange      EXHF   =         0.00000000
  -V(xc)+E(xc)   XCENC  =     -3669.12698591
  PAW double counting   =     23988.15081156   -19520.58959983
  entropy T*S    EENTRO =         0.02849982
  eigenvalues    EBANDS =     -2462.74132124
  atomic energy  EATOM  =      7745.74488383
  Solvation  Ediel_sol  =         0.00000000
  ---------------------------------------------------
  free energy    TOTEN  =      -572.34946943 eV

  energy without entropy =     -572.37796925  energy(sigma->0) =     -572.35896937


--------------------------------------------------------------------------------------------------------




--------------------------------------- Iteration      1(  15)  ---------------------------------------


    POTLOK:  cpu time    0.0433: real time    0.0433
    SETDIJ:  cpu time    0.0036: real time    0.0036
     EDDAV:  cpu time    5.2428: real time    5.2378
       DOS:  cpu time    0.0005: real time    0.0005
    CHARGE:  cpu time    0.1353: real time    0.1352
    MIXING:  cpu time    0.0067: real time    0.0067
    --------------------------------------------
      LOOP:  cpu time    5.4322: real time    5.4270

 eigenvalue-minimisations  :   704
 total energy-change (2. order) :-0.4516353E-02  (-0.1845132E-03)
 number of electron     431.9999999 magnetization 
 augmentation part       -7.2358791 magnetization 

 Broyden mixing:
  rms(total) = 0.12633E-01    rms(broyden)= 0.12633E-01
  rms(prec ) = 0.13408E-01
  weight for this iteration     100.00

 eigenvalues of (default mixing * dielectric matrix)
  average eigenvalue GAMMA=   1.1955
  3.0632  2.5635  2.5635  1.7696  0.1960  1.0692  0.9761  0.9761  0.7768  0.7768
  0.6247  0.5494  0.4351  0.3973

 Free energy of the ion-electron system (eV)
  ---------------------------------------------------
  alpha Z        PSCENC =        -7.11520446
  Ewald energy   TEWEN  =    197777.88273257
  -Hartree energ DENC   =   -204429.45696446
  -exchange      EXHF   =         0.00000000
  -V(xc)+E(xc)   XCENC  =     -3669.11097505
  PAW double counting   =     24081.96537334   -19614.40871819
  entropy T*S    EENTRO =         0.02828874
  eigenvalues    EBANDS =     -2457.88340211
  atomic energy  EATOM  =      7745.74488383
  Solvation  Ediel_sol  =         0.00000000
  ---------------------------------------------------
  free energy    TOTEN  =      -572.35398579 eV

  energy without entropy =     -572.38227453  energy(sigma->0) =     -572.36341537


--------------------------------------------------------------------------------------------------------




--------------------------------------- Iteration      1(  16)  ---------------------------------------


    POTLOK:  cpu time    0.0433: real time    0.0433
    SETDIJ:  cpu time    0.0036: real time    0.0036
     EDDAV:  cpu time    5.0534: real time    5.0487
       DOS:  cpu time    0.0005: real time    0.0004
    CHARGE:  cpu time    0.1355: real time    0.1353
    MIXING:  cpu time    0.0070: real time    0.0070
    --------------------------------------------
[...]
   0.119E+00 0.131E+01 -.219E+03   -.172E+00 -.100E+01 0.219E+03   0.805E-01 -.485E+00 0.246E+00   -.612E-04 0.560E-03 0.206E-03
   0.228E+01 -.389E+00 -.227E+03   -.156E+01 -.240E-01 0.227E+03   -.108E+01 0.669E+00 -.573E-01   0.473E-04 0.620E-03 0.252E-03
   -.238E+01 -.669E+00 -.233E+03   0.232E+01 0.542E+00 0.232E+03   0.134E+00 0.229E+00 0.442E+00   -.508E-04 -.576E-03 0.170E-03
   0.280E+01 -.102E+01 -.227E+03   -.267E+01 0.837E+00 0.227E+03   -.375E+00 0.344E+00 -.225E+00   0.114E-04 -.600E-03 -.358E-04
   0.514E+00 -.720E+00 -.220E+03   -.539E+00 0.581E+00 0.220E+03   0.979E-01 0.181E+00 0.530E+00   -.400E-04 -.698E-03 0.189E-03
   -.919E+00 -.876E+00 -.227E+03   0.763E+00 0.553E+00 0.227E+03   0.249E+00 0.404E+00 0.847E-01   0.703E-04 -.658E-03 0.281E-03
   -.188E+01 0.236E+01 -.223E+03   0.165E+01 -.248E+01 0.223E+03   0.420E+00 0.835E-01 0.420E+00   0.514E-06 -.327E-04 0.493E-03
   -.210E+01 0.421E+01 -.228E+03   0.175E+01 -.388E+01 0.228E+03   0.593E+00 -.567E+00 -.656E+00   0.568E-04 0.472E-04 0.359E-03
   0.171E+00 -.311E+01 -.229E+03   -.389E+00 0.253E+01 0.228E+03   0.203E+00 0.992E+00 -.937E-01   -.357E-04 0.249E-03 0.327E-03
   0.208E+01 0.689E+00 -.231E+03   -.194E+01 -.287E+00 0.231E+03   -.266E+00 -.528E+00 0.154E-01   -.232E-04 0.175E-03 0.416E-03
   0.111E+00 0.155E+01 -.221E+03   -.305E+00 -.129E+01 0.220E+03   0.241E+00 -.319E+00 0.101E+01   -.174E-03 -.870E-04 0.705E-03
   -.337E+01 0.669E+00 -.224E+03   0.295E+01 -.345E+00 0.224E+03   0.712E+00 -.404E+00 0.312E+00   0.348E-03 -.963E-04 0.626E-03
   -.209E+01 0.544E+00 -.227E+03   0.206E+01 -.951E+00 0.227E+03   0.125E+00 0.437E+00 0.545E+00   0.106E-03 0.125E-03 0.604E-03
   0.429E+01 0.132E+01 -.234E+03   -.376E+01 -.121E+01 0.234E+03   -.862E+00 -.221E+00 0.484E+00   -.285E-03 0.121E-03 0.726E-03
   -.290E+00 -.318E+01 -.224E+03   -.671E-05 0.258E+01 0.224E+03   0.509E+00 0.916E+00 -.470E+00   -.262E-03 -.290E-03 0.700E-03
   -.144E+01 0.996E+00 -.226E+03   0.132E+01 -.834E+00 0.226E+03   0.215E+00 -.273E+00 0.133E-01   0.292E-03 -.436E-03 0.612E-03
   -.105E+00 0.184E+01 -.230E+03   0.361E-01 -.145E+01 0.230E+03   -.185E-01 -.588E+00 -.857E+00   0.142E-03 -.605E-03 0.590E-03
   -.633E+00 -.330E+01 -.226E+03   0.332E+00 0.269E+01 0.226E+03   0.510E+00 0.102E+01 0.426E+00   -.170E-03 -.512E-03 0.731E-03
   0.138E+01 -.297E+01 -.371E+03   -.116E+01 0.269E+01 0.370E+03   -.330E+00 0.317E+00 0.134E+01   -.940E-04 -.266E-03 -.830E-04
   0.393E+01 -.334E+01 -.373E+03   -.322E+01 0.310E+01 0.372E+03   -.111E+01 0.465E+00 0.126E+01   -.510E-04 -.293E-03 0.940E-04
   -.353E+01 0.680E+00 -.376E+03   0.271E+01 -.377E-01 0.375E+03   0.112E+01 -.808E+00 0.115E+01   0.148E-03 -.345E-03 0.248E-04
   -.183E+00 -.468E+01 -.368E+03   0.492E+00 0.376E+01 0.367E+03   -.445E+00 0.140E+01 0.178E+01   0.134E-04 -.310E-03 -.820E-04
   -.282E+01 0.560E+01 -.381E+03   0.271E+01 -.481E+01 0.381E+03   0.296E+00 -.131E+01 0.503E+00   -.241E-03 0.496E-03 -.420E-03
   -.315E-01 -.145E+01 -.370E+03   -.195E+00 0.141E+01 0.368E+03   0.246E+00 0.827E-01 0.146E+01   -.114E-03 0.383E-03 -.635E-03
   0.521E+01 -.115E+01 -.373E+03   -.413E+01 0.888E+00 0.372E+03   -.152E+01 0.269E+00 0.886E+00   0.238E-03 0.395E-03 -.630E-03
   -.208E+01 0.412E+01 -.377E+03   0.148E+01 -.350E+01 0.376E+03   0.885E+00 -.902E+00 0.524E+00   0.109E-03 0.524E-03 -.272E-03
   -.462E+01 -.213E+01 -.374E+03   0.413E+01 0.167E+01 0.374E+03   0.769E+00 0.742E+00 0.839E+00   -.220E-03 -.749E-04 -.723E-03
   0.300E+01 0.110E+01 -.376E+03   -.229E+01 -.914E+00 0.376E+03   -.102E+01 -.242E+00 0.575E+00   -.156E-03 0.218E-04 -.109E-02
   0.802E+00 -.499E+00 -.365E+03   -.965E+00 0.415E+00 0.363E+03   0.325E+00 0.101E+00 0.179E+01   0.222E-03 -.109E-03 -.102E-02
   0.141E+01 -.272E+01 -.373E+03   -.127E+01 0.220E+01 0.372E+03   -.211E+00 0.731E+00 0.806E+00   0.148E-03 -.187E-03 -.646E-03
   -.223E+01 0.237E+01 -.376E+03   0.176E+01 -.218E+01 0.375E+03   0.687E+00 -.393E+00 0.735E+00   0.430E-04 -.259E-03 -.341E-03
   0.500E+00 0.646E+01 -.376E+03   -.226E+00 -.588E+01 0.375E+03   -.387E+00 -.114E+01 0.932E+00   -.999E-04 0.106E-03 -.336E-03
   0.189E+01 0.619E+00 -.375E+03   -.142E+01 -.676E+00 0.374E+03   -.710E+00 0.765E-01 0.972E+00   0.129E-04 -.298E-04 -.389E-03
   0.131E+01 0.161E+00 -.370E+03   -.118E+01 0.254E-01 0.369E+03   -.187E+00 -.285E+00 0.130E+01   0.673E-04 -.279E-03 -.273E-03
   0.424E+01 -.427E+01 -.378E+03   -.365E+01 0.355E+01 0.377E+03   -.912E+00 0.105E+01 0.740E+00   0.124E-03 0.257E-03 -.314E-03
   0.118E+01 -.291E+00 -.372E+03   -.106E+01 0.403E-01 0.371E+03   -.314E+00 0.362E+00 0.962E+00   0.397E-04 0.177E-03 0.138E-03
   -.550E+01 0.239E+01 -.375E+03   0.482E+01 -.198E+01 0.374E+03   0.105E+01 -.467E+00 0.798E+00   -.273E-04 0.420E-03 -.104E-03
   0.124E+01 -.130E+01 -.375E+03   -.106E+01 0.133E+01 0.374E+03   -.392E+00 0.846E-01 0.959E+00   -.105E-03 0.459E-03 -.494E-03
   0.475E+01 0.277E+01 -.371E+03   -.405E+01 -.210E+01 0.369E+03   -.918E+00 -.100E+01 0.215E+01   -.180E-03 -.234E-03 -.181E-03
   0.142E+01 -.153E+01 -.378E+03   -.136E+01 0.137E+01 0.377E+03   -.119E+00 0.303E+00 0.783E+00   0.832E-04 -.307E-03 0.202E-03
   0.257E+00 -.119E+01 -.375E+03   0.279E+00 0.821E+00 0.374E+03   -.806E+00 0.440E+00 0.100E+01   0.140E-03 -.320E-03 -.521E-04
   -.551E+01 0.452E+01 -.378E+03   0.442E+01 -.382E+01 0.377E+03   0.137E+01 -.116E+01 0.680E+00   -.631E-04 -.284E-03 -.515E-03
 -----------------------------------------------------------------------------------------------
   -.470E+00 0.123E+01 0.421E+00   0.115E-13 -.857E-13 -.148E-11   0.469E+00 -.123E+01 -.511E+00   -.218E-04 -.111E-04 0.870E-01
 
 
 POSITION                                       TOTAL-FORCE (eV/Angst)
 -----------------------------------------------------------------------------------
      1.23025      1.42214     20.02985         0.038929      0.111487     -0.104943
      4.09998      1.46510     19.92430         0.022576      0.177035      0.108895
      6.92009      1.57919     19.95737         0.056723     -0.132356      0.041403
      9.82296      1.52672     20.03300        -0.063864      0.183107     -0.169614
      1.33366      4.23450     19.87566        -0.016764      0.203010      0.068342
      4.17475      4.44192     19.93669        -0.095512     -0.107669     -0.058419
      7.04736      4.32341     19.90505         0.019767      0.379635      0.039063
      9.97684      4.42771     19.85688        -0.147296     -0.018922      0.107522
      1.32671      7.21809     20.06272        -0.399111      0.066963     -0.416014
      4.09993      7.32914     19.90291         0.157076     -0.028048      0.125365
      7.00179      7.24905     19.86860         0.087036     -0.085836      0.261890
      9.84234      7.32191     20.05660         0.169922     -0.201478     -0.129470
      1.30110     10.04894     19.85917        -0.102207      0.132137      0.161465
      4.16820     10.16702     19.91921         0.043390      0.023537      0.218402
      7.10751     10.11206     19.92144        -0.250335      0.082020      0.062627
      9.82900     10.05475     20.03441         0.277007      0.201433     -0.326918
      1.21783     12.98802     19.92844        -0.075897     -0.002998      0.155092
      4.09762     12.96637     19.98128         0.141091      0.001503      0.057257
      6.98760     12.90699     20.04230        -0.280576      0.177578     -0.198862
      9.73558     12.95866     19.90431         0.390377      0.289542     -0.021489
      1.00086     15.79485     19.99014         0.481437      0.143544     -0.035607
      3.97056     15.80265     19.98384         0.198403      0.150340      0.018037
      6.94191     15.76243     19.94658        -0.234235      0.222878      0.040315
      9.71155     15.91438     19.84847        -0.002215     -0.088723      0.245205
     11.19906      0.13492     21.99323         0.215485     -0.211419      0.095945
      2.69091      0.19709     22.02912        -0.077062     -0.435293     -0.045192
      5.51683      0.16364     21.94495         0.009104     -0.225260      0.093324
      8.33749      0.19186     21.93587        -0.009548     -0.175455      0.050681
     11.27616      3.00243     21.93774        -0.033661     -0.131475      0.094762
      2.70768      3.00093     21.90548         0.048377     -0.025050      0.248303
      5.58868      3.08154     21.96206        -0.194033     -0.270174      0.069250
      8.45558      3.10905     21.95297        -0.046969     -0.565236      0.055783
     11.34725      5.77282     21.92541        -0.039216      0.179932      0.140859
      2.67364      5.84530     21.88593         0.079243     -0.162578      0.332573
      5.56172      5.87931     21.83107         0.241382      0.032578      0.203783
      8.61513      5.78803     21.96032        -0.641775      0.346736     -0.145789
     11.35559      8.73482     22.01678        -0.256294     -0.144755      0.018640
      2.66418      8.70339     21.93354         0.286846      0.152850      0.328382
      5.65133      8.77250     21.91726        -0.164321     -0.219940      0.007606
      8.45047      8.81073     21.97022        -0.102914     -0.298893      0.529892
     11.24563     11.48141     21.86835         0.334595      0.327327      0.308000
      2.62432     11.56518     21.93879         0.226796     -0.163146      0.054854
      5.62701     11.55177     22.03966        -0.036526      0.041644     -0.177266
      8.52911     11.71557     21.93556        -0.305485     -0.556017      0.527995
     11.24042     14.49496     21.98768         0.062378     -0.203687      0.026363
      2.71165     14.42581     21.94056        -0.175311      0.001842      0.275010
      5.60438     14.38927     22.01925        -0.249958      0.039358     -0.075184
      8.39210     14.52612     21.93707         0.236273     -0.111445      0.166013
      1.19713      1.57306     23.93526         0.098545     -0.109234      0.097135
      4.10393      1.57881     23.97148        -0.078473     -0.041667     -0.074424
      6.94737      1.52031     23.95300         0.060965      0.190290      0.169432
      9.81663      1.45095     23.96196        -0.086998      0.420724      0.189031
      1.11756      4.36694     23.98597         0.340413      0.201437     -0.076324
      4.03063      4.53845     23.88151         0.026986     -0.574665      0.114268
      6.99256      4.46973     23.88611        -0.199878     -0.151553      0.206614
      9.80320      4.35184     24.01511         0.123546     -0.072681      0.166613
      1.14039      7.26577     23.97731         0.273741     -0.049922     -0.034639
      4.14311      7.20396     23.85150        -0.267403      0.510345      0.022497
      6.94521      7.29172     23.90972         0.278918      0.034873      0.034462
      9.79043      7.20666     23.98800         0.060629      0.260825     -0.046599
      1.28910     10.17484     24.05205        -0.121351     -0.101507     -0.221783
      4.16740     10.08689     23.89117        -0.176722     -0.028224      0.173658
      6.97501     10.16105     24.07599         0.132960     -0.137318     -0.174854
      9.86558     10.15814     24.09364        -0.126588     -0.099181     -0.527790
      1.34234     12.95438     23.90150        -0.140780      0.275159      0.198596
      4.23941     12.90081     24.03166        -0.274149      0.212076     -0.289803
      7.21015     12.96164     24.04615        -0.336957      0.195253     -0.215512
     10.02364     13.03369     23.90160        -0.248188     -0.115491      0.235036
      1.36103     15.90103     24.05358        -0.371221     -0.136130     -0.333720
      4.12889     15.78660     23.96459         0.203412      0.271212     -0.050287
      6.96036     15.82913     23.93546        -0.001988      0.158742      0.269917
      9.78206     15.88876     23.98945         0.178254     -0.173891      0.014854
     11.30609      0.04148     25.99012        -0.213665      0.043432     -0.002593
      2.67431      0.17280     26.03529         0.012607     -0.175356     -0.214874
      5.49762      0.10395     26.06547         0.096841     -0.202587     -0.387350
      8.38648      0.07163     26.02465        -0.091665      0.045637     -0.046733
     11.23089      2.90404     26.00177        -0.167107     -0.018451     -0.080316
      2.57673      3.04532     25.95260         0.144394     -0.163040     -0.041082
      5.38440      2.98346     25.89661         0.353005      0.177015      0.100532
      8.31495      2.92306     26.06547         0.116760      0.041042     -0.510721
     11.26692      5.85840     26.03470        -0.359097     -0.069276     -0.131352
      2.58825      5.87153     25.97413         0.274984     -0.056985     -0.053800
      5.48069      5.84072     25.86492         0.016727     -0.231476      0.275455
      8.36742      5.76912     25.96533         0.109042      0.099099      0.046219
     11.16117      8.68829     25.98209         0.272182     -0.124371      0.179081
      2.61632      8.65361     25.90448         0.185651      0.071792      0.266367
      5.46070      8.62570     25.98862         0.054869      0.357069     -0.022529
      8.37793      8.70797     26.07068        -0.094671     -0.113072     -0.232660
     11.23298     11.52460     26.04756         0.231372      0.150454     -0.256497
      2.72536     11.55165     26.01428        -0.121566     -0.129728     -0.098586
      5.50187     11.59989     26.02531         0.238105     -0.451753      0.177428
      8.43148     11.55363     25.98145        -0.013307      0.060499      0.402665
     11.29285     14.36176     26.01542         0.190588      0.174446     -0.341422
      2.75705     14.43607     25.90950        -0.163404     -0.142169      0.227750
      5.60969     14.37075     25.96025         0.041293      0.288768      0.129072
      8.49301     14.44402     26.06494        -0.332641     -0.215880     -0.262559
      1.14490      1.48112     27.99720         0.081500      0.276952     -0.031842
      4.02203      1.48355     27.96232         0.139312      0.290984      0.099101
      6.89033      1.53486     27.93365         0.048909      0.052795      0.243652
      9.76260      1.58700     28.03984         0.268987     -0.192510     -0.073822
      1.19456      4.43696     27.91492         0.173289     -0.180579      0.477314
      4.05460      4.29531     27.99833        -0.071976      0.262179     -0.280590
      6.92984      4.40685     27.91672         0.027715     -0.178716     -0.040134
      9.89605      4.32513     28.01527        -0.357597      0.256887     -0.184238
      1.21898      7.26493     28.04771         0.077274      0.101446      0.060846
      4.09211      7.26031     28.01559        -0.246532      0.157755     -0.294551
      6.94247      7.21019     27.90810         0.072847      0.042590      0.069156
      9.77772      7.18935     28.01013         0.093052      0.079791     -0.183234
      1.21151     10.07355     27.95963         0.188253     -0.030779     -0.058404
      4.08235     10.16895     28.06885         0.236714     -0.232523     -0.551589
      6.93666     10.06155     28.03495        -0.015116      0.414861     -0.298507
      9.86912     10.17662     28.05514        -0.126182     -0.125691     -0.180140
      1.28630     12.96705     27.90659         0.046992     -0.064892      0.245503
      4.06770     13.04827     27.97551         0.287039     -0.080004      0.036040
      6.99286     12.94827     27.99287         0.089267      0.030590      0.092690
      9.94498     12.99065     28.04749        -0.331241     -0.116412      0.110853
      1.28508     15.75820     27.98154         0.218838      0.316134     -0.345838
      4.10888     15.83055     28.01063         0.092270     -0.110531     -0.180140
      6.91834     15.88940     28.08994        -0.087622     -0.200667     -0.540143
      9.81023     15.74936     27.98114         0.209234      0.401465     -0.034160
     11.32783      0.10497     29.92501        -0.110441      0.040924      0.109840
      2.74908     17.17541     29.95192        -0.404364      0.221632      0.121188
      5.45306      0.20688     30.00437         0.300880     -0.166085     -0.028174
      8.47064      0.03863     29.85376        -0.136066      0.485672      0.375022
     11.18262      3.15529     30.18550         0.189026     -0.510543     -0.352385
      2.59016      2.91412     29.89910         0.019763      0.048789      0.107013
      5.62212      2.95936     29.97870        -0.440409      0.006217     -0.064747
      8.29732      3.01505     30.08823         0.284045     -0.287394     -0.319033
     11.17039      5.84544     30.03398         0.271645      0.280182     -0.072170
      2.75535      5.89117     30.07680        -0.304410     -0.058974     -0.269113
      5.50091      5.78053     29.79780         0.162565      0.016352      0.434638
      8.34102      5.75562     29.98986        -0.073780      0.210290     -0.106082
     11.19435      8.69182     30.05713         0.214493     -0.204105     -0.114266
      2.71939      8.88537     30.07531        -0.113595     -0.554009     -0.122642
      5.65896      8.63447     30.01833        -0.242377      0.019198     -0.013416
      8.42775      8.68497     29.91799        -0.058279     -0.098638      0.128931
      0.04388     11.45153     30.08323        -0.317160      0.330689     -0.162375
      2.76617     11.59737     29.98224        -0.191100      0.110757      0.035423
      5.50679     11.58709     30.04589         0.361786     -0.053089     -0.165743
      8.52806     11.59220     30.03500        -0.203694      0.112827     -0.112319
     11.40735     14.49447     29.85934        -0.218376     -0.339160      0.447291
      2.76208     14.35269     30.06975        -0.066592      0.147131     -0.116707
      5.60292     14.38352     30.03019        -0.269829      0.073034     -0.151680
      8.30670     14.54339     30.08703         0.278939     -0.459568     -0.148319
 -----------------------------------------------------------------------------------
    total drift:                               -0.001460      0.001116     -0.002539


--------------------------------------------------------------------------------------------------------



  FREE ENERGIE OF THE ION-ELECTRON SYSTEM (eV)
  ---------------------------------------------------
  free  energy   TOTEN  =      -572.36904992 eV

  energy  without entropy=     -572.39747451  energy(sigma->0) =     -572.37852478
 


--------------------------------------------------------------------------------------------------------


    POTLOK:  cpu time    0.0482: real time    0.0482


--------------------------------------------------------------------------------------------------------


 writing wavefunctions
     LOOP+:  cpu time  142.1660: real time  144.4166
    4ORBIT:  cpu time    0.0000: real time    0.0000

 total amount of memory used by VASP MPI-rank0   112294. kBytes
=======================================================================

   base      :      30000. kBytes
   nonl-proj :      49633. kBytes
   fftplans  :      12330. kBytes
   grid      :      13762. kBytes
   one-center:        110. kBytes
   wavefun   :       6459. kBytes
 
  
  
 General timing and accounting informations for this job:
 ========================================================
  
                  Total CPU time used (sec):      150.791
                            User time (sec):      147.734
                          System time (sec):        3.056
                         Elapsed time (sec):      154.464
  
                   Maximum memory used (kb):      191320.
                   Average memory used (kb):           0.
  
                          Minor page faults:        69171
                          Major page faults:            0
                 Voluntary context switches:         4672
