unknown system                          
           1
    11.455130    0.000000    0.000000
     0.000000   17.182695    0.000000
     0.000000    0.000000   50.125000
   Al
 144
Direct configuration=     1
   0.10739743  0.08276600  0.39959804
   0.35791633  0.08526620  0.39749229
   0.60410427  0.09190591  0.39815204
   0.85751611  0.08885227  0.39966078
   0.11642476  0.24643962  0.39652191
   0.36444382  0.25851122  0.39773952
   0.61521420  0.25161411  0.39710813
   0.87094913  0.25768407  0.39614715
   0.11581762  0.42007924  0.40025383
   0.35791191  0.42654206  0.39706551
   0.61123596  0.42188104  0.39638097
   0.85920828  0.42612097  0.40013160
   0.11358228  0.58482913  0.39619287
   0.36387183  0.59170087  0.39739071
   0.62046486  0.58850266  0.39743512
   0.85804319  0.58516710  0.39968904
   0.10631288  0.75587775  0.39757479
   0.35771057  0.75461811  0.39862897
   0.60999720  0.75116231  0.39984632
   0.84988848  0.75416946  0.39709347
   0.08737212  0.91923028  0.39880576
   0.34661888  0.91968394  0.39868004
   0.60600904  0.91734323  0.39793666
   0.84779020  0.92618666  0.39597943
   0.97764569  0.00785203  0.43876759
   0.23490847  0.01147023  0.43948368
   0.48160316  0.00952373  0.43780452
   0.72783919  0.01116568  0.43762340
   0.98437670  0.17473578  0.43766061
   0.23637300  0.17464847  0.43701698
   0.48787595  0.17933999  0.43814590
   0.73814748  0.18094088  0.43796441
   0.99058275  0.33596726  0.43741469
   0.23340078  0.34018514  0.43662711
   0.48552218  0.34216460  0.43553253
   0.75207619  0.33685220  0.43811111
   0.99131029  0.50834960  0.43923749
   0.23257548  0.50652063  0.43757688
   0.49334497  0.51054270  0.43725207
   0.73770146  0.51276759  0.43830864
   0.98171129  0.66819629  0.43627637
   0.22909529  0.67307160  0.43768158
   0.49122158  0.67229096  0.43969389
   0.74456656  0.68182372  0.43761723
   0.98125687  0.84357921  0.43865706
   0.23671906  0.83955485  0.43771697
   0.48924674  0.83742813  0.43928671
   0.73260599  0.84539246  0.43764726
   0.10450606  0.09154922  0.47751146
   0.35826147  0.09188357  0.47823407
   0.60648591  0.08847937  0.47786540
   0.85696350  0.08444259  0.47804411
   0.09755948  0.25414768  0.47852306
   0.35186211  0.26412940  0.47643919
   0.61043042  0.26012947  0.47653085
   0.85579111  0.25326849  0.47910434
   0.09955253  0.42285389  0.47835042
   0.36168163  0.41925684  0.47584034
   0.60629719  0.42436435  0.47700186
   0.85467635  0.41941372  0.47856362
   0.11253458  0.59215605  0.47984149
   0.36380242  0.58703780  0.47663188
   0.60889866  0.59135342  0.48031907
   0.86123725  0.59118441  0.48067112
   0.11718210  0.75392016  0.47683788
   0.37008796  0.75080221  0.47943468
   0.62942508  0.75434239  0.47972374
   0.87503465  0.75853589  0.47683994
   0.11881418  0.92540929  0.47987183
   0.36043990  0.91874976  0.47809651
   0.60761963  0.92122493  0.47751545
   0.85394593  0.92469563  0.47859247
   0.98698909  0.00241383  0.51850616
   0.23345994  0.01005650  0.51940735
   0.47992629  0.00604988  0.52000934
   0.73211566  0.00416870  0.51919498
   0.98042446  0.16900949  0.51873848
   0.22494074  0.17723185  0.51775752
   0.47004300  0.17363143  0.51664055
   0.72587138  0.17011624  0.52000937
   0.98357023  0.34094750  0.51939545
   0.22594676  0.34171156  0.51818713
   0.47844812  0.33991889  0.51600842
   0.73045186  0.33575202  0.51801165
   0.97433819  0.50564184  0.51834596
   0.22839686  0.50362361  0.51679766
   0.47670372  0.50199946  0.51847616
   0.73136945  0.50678746  0.52011332
   0.98060678  0.67070963  0.51965207
   0.23791584  0.67228400  0.51898816
   0.48029751  0.67509150  0.51920813
   0.73604393  0.67239896  0.51833315
   0.98583313  0.83582699  0.51901082
   0.24068289  0.84015193  0.51689783
   0.48970966  0.83635016  0.51791025
   0.74141569  0.84061465  0.51999879
   0.09994684  0.08619815  0.55854763
   0.35111209  0.08633971  0.55785178
   0.60150647  0.08932616  0.55727971
   0.85224712  0.09236047  0.55939824
   0.10428187  0.25822253  0.55690606
   0.35395453  0.24997884  0.55857012
   0.60495479  0.25647037  0.55694212
   0.86389711  0.25171459  0.55890810
   0.10641354  0.42280479  0.55955538
   0.35722912  0.42253618  0.55891444
   0.60605786  0.41961932  0.55677014
   0.85356684  0.41840626  0.55880559
   0.10576149  0.58626143  0.55779802
   0.35637718  0.59181358  0.55997697
   0.60555034  0.58556310  0.55930068
   0.86154553  0.59226001  0.55970363
   0.11229054  0.75465747  0.55673997
   0.35509846  0.75938425  0.55811483
   0.61045681  0.75356465  0.55846125
   0.86816816  0.75603100  0.55955102
   0.11218347  0.91709708  0.55823522
   0.35869325  0.92130769  0.55881566
   0.60395160  0.92473246  0.56039775
   0.85640533  0.91658283  0.55822716
   0.98888677  0.00610915  0.59700773
   0.23998700  0.99957619  0.59754462
   0.47603634  0.01204011  0.59859100
   0.73946287  0.00224801  0.59558627
   0.97621033  0.18363175  0.60220452
   0.22611393  0.16959650  0.59649067
   0.49079465  0.17222924  0.59807883
   0.72433193  0.17547040  0.60026396
   0.97514292  0.34019344  0.59918168
   0.24053400  0.34285455  0.60003592
   0.48021405  0.33641565  0.59446977
   0.72814748  0.33496605  0.59830135
   0.97723471  0.50584737  0.59964353
   0.23739513  0.51711141  0.60000623
   0.49401104  0.50250969  0.59886950
   0.73571815  0.50544881  0.59686755
   0.00383044  0.66645722  0.60016427
   0.24147874  0.67494464  0.59814934
   0.48072701  0.67434660  0.59941921
   0.74447562  0.67464373  0.59920201
   0.99582909  0.84355045  0.59569755
   0.24112169  0.83529918  0.59989533
   0.48911881  0.83709363  0.59910597
   0.72515076  0.84639768  0.60023995
