 240 240   0   0
  0.4775178E+02  0.1145513E-08  0.1718270E-08  0.5822500E-08  0.5000000E-15
  1.000000000000000E-004
  CAR 
 unknown system                          
      4.23970367    -13.17327950  301     -0.22595550      1.00000000
    -13.173  0.0000E+00  0.0000E+00
    -13.115  0.0000E+00  0.0000E+00
    -13.057  0.0000E+00  0.0000E+00
    -12.999  0.0000E+00  0.0000E+00
    -12.941  0.0000E+00  0.0000E+00
    -12.883  0.0000E+00  0.0000E+00
    -12.825 -0.1919E-27 -0.1114E-28
    -12.767 -0.2036E-25 -0.1193E-26
    -12.709 -0.1836E-23 -0.1078E-24
    -12.651 -0.1397E-21 -0.8217E-23
    -12.593 -0.8965E-20 -0.5286E-21
    -12.535 -0.4850E-18 -0.2868E-19
    -12.477 -0.2212E-16 -0.1313E-17
    -12.419 -0.8503E-15 -0.5066E-16
    -12.361 -0.2753E-13 -0.1649E-14
    -12.303 -0.7259E-12 -0.4378E-13
    -12.245 -0.1664E-10 -0.1010E-11
    -12.187 -0.3200E-09 -0.1958E-10
    -12.129 -0.5170E-08 -0.3196E-09
    -12.070 -0.7009E-07 -0.4388E-08
    -12.012 -0.7965E-06 -0.5062E-07
    -11.954 -0.7575E-05 -0.4903E-06
    -11.896 -0.6015E-04 -0.3981E-05
    -11.838 -0.3976E-03 -0.2706E-04
    -11.780 -0.2180E-02 -0.1536E-03
    -11.722 -0.9848E-02 -0.7252E-03
    -11.664 -0.3634E-01 -0.2834E-02
    -11.606 -0.1078E+00 -0.9092E-02
    -11.548 -0.2496E+00 -0.2358E-01
    -11.490 -0.4207E+00 -0.4800E-01
    -11.432 -0.3987E+00 -0.7115E-01
    -11.374  0.2539E+00 -0.5641E-01
    -11.316  0.1929E+01  0.5553E-01
    -11.258  0.4453E+01  0.3140E+00
    -11.200  0.6879E+01  0.7133E+00
    -11.142  0.8121E+01  0.1185E+01
    -11.084  0.7995E+01  0.1649E+01
    -11.026  0.7385E+01  0.2077E+01
    -10.968  0.7262E+01  0.2499E+01
    -10.910  0.7877E+01  0.2956E+01
    -10.852  0.9131E+01  0.3486E+01
    -10.794  0.1115E+02  0.4133E+01
    -10.735  0.1392E+02  0.4941E+01
    -10.677  0.1675E+02  0.5914E+01
    -10.619  0.1894E+02  0.7013E+01
    -10.561  0.2073E+02  0.8216E+01
    -10.503  0.2257E+02  0.9526E+01
    -10.445  0.2354E+02  0.1089E+02
    -10.387  0.2162E+02  0.1215E+02
    -10.329  0.1621E+02  0.1309E+02
    -10.271  0.9940E+01  0.1367E+02
    -10.213  0.7238E+01  0.1409E+02
    -10.155  0.1094E+02  0.1472E+02
    -10.097  0.1994E+02  0.1588E+02
    -10.039  0.2986E+02  0.1761E+02
     -9.981  0.3616E+02  0.1971E+02
     -9.923  0.3695E+02  0.2185E+02
     -9.865  0.3337E+02  0.2379E+02
     -9.807  0.2805E+02  0.2542E+02
     -9.749  0.2365E+02  0.2679E+02
     -9.691  0.2235E+02  0.2809E+02
     -9.633  0.2532E+02  0.2956E+02
     -9.575  0.3215E+02  0.3142E+02
     -9.517  0.4129E+02  0.3382E+02
     -9.459  0.5122E+02  0.3679E+02
     -9.400  0.6042E+02  0.4030E+02
     -9.342  0.6663E+02  0.4417E+02
     -9.284  0.6692E+02  0.4805E+02
     -9.226  0.5979E+02  0.5152E+02
     -9.168  0.4723E+02  0.5427E+02
     -9.110  0.3477E+02  0.5628E+02
     -9.052  0.2880E+02  0.5796E+02
     -8.994  0.3262E+02  0.5985E+02
     -8.936  0.4356E+02  0.6238E+02
     -8.878  0.5435E+02  0.6553E+02
     -8.820  0.5832E+02  0.6892E+02
     -8.762  0.5389E+02  0.7204E+02
     -8.704  0.4441E+02  0.7462E+02
     -8.646  0.3447E+02  0.7662E+02
     -8.588  0.2681E+02  0.7818E+02
     -8.530  0.2228E+02  0.7947E+02
     -8.472  0.2129E+02  0.8071E+02
     -8.414  0.2453E+02  0.8213E+02
     -8.356  0.3179E+02  0.8398E+02
     -8.298  0.4075E+02  0.8634E+02
     -8.240  0.4803E+02  0.8913E+02
     -8.182  0.5189E+02  0.9214E+02
     -8.124  0.5326E+02  0.9523E+02
     -8.065  0.5411E+02  0.9837E+02
     -8.007  0.5576E+02  0.1016E+03
     -7.949  0.5851E+02  0.1050E+03
     -7.891  0.6143E+02  0.1086E+03
     -7.833  0.6218E+02  0.1122E+03
     -7.775  0.5861E+02  0.1156E+03
     -7.717  0.5143E+02  0.1186E+03
     -7.659  0.4434E+02  0.1211E+03
     -7.601  0.4085E+02  0.1235E+03
     -7.543  0.4144E+02  0.1259E+03
     -7.485  0.4399E+02  0.1285E+03
     -7.427  0.4637E+02  0.1312E+03
     -7.369  0.4787E+02  0.1339E+03
     -7.311  0.4848E+02  0.1368E+03
     -7.253  0.4729E+02  0.1395E+03
     -7.195  0.4216E+02  0.1419E+03
     -7.137  0.3200E+02  0.1438E+03
     -7.079  0.1965E+02  0.1449E+03
     -7.021  0.1209E+02  0.1456E+03
     -6.963  0.1646E+02  0.1466E+03
     -6.905  0.3475E+02  0.1486E+03
     -6.847  0.6114E+02  0.1522E+03
     -6.789  0.8446E+02  0.1571E+03
     -6.730  0.9452E+02  0.1626E+03
     -6.672  0.8833E+02  0.1677E+03
     -6.614  0.7161E+02  0.1718E+03
     -6.556  0.5421E+02  0.1750E+03
     -6.498  0.4358E+02  0.1775E+03
     -6.440  0.4190E+02  0.1799E+03
     -6.382  0.4803E+02  0.1827E+03
     -6.324  0.6019E+02  0.1862E+03
     -6.266  0.7618E+02  0.1907E+03
     -6.208  0.9241E+02  0.1960E+03
     -6.150  0.1041E+03  0.2021E+03
     -6.092  0.1064E+03  0.2082E+03
     -6.034  0.9696E+02  0.2139E+03
     -5.976  0.7745E+02  0.2184E+03
     -5.918  0.5522E+02  0.2216E+03
     -5.860  0.4085E+02  0.2239E+03
     -5.802  0.4214E+02  0.2264E+03
     -5.744  0.5856E+02  0.2298E+03
     -5.686  0.8146E+02  0.2345E+03
     -5.628  0.1002E+03  0.2403E+03
     -5.570  0.1089E+03  0.2466E+03
     -5.512  0.1080E+03  0.2529E+03
     -5.454  0.1015E+03  0.2588E+03
     -5.395  0.9210E+02  0.2641E+03
     -5.337  0.8084E+02  0.2688E+03
     -5.279  0.6841E+02  0.2728E+03
     -5.221  0.5776E+02  0.2762E+03
     -5.163  0.5378E+02  0.2793E+03
     -5.105  0.5962E+02  0.2827E+03
     -5.047  0.7296E+02  0.2870E+03
     -4.989  0.8677E+02  0.2920E+03
     -4.931  0.9453E+02  0.2975E+03
     -4.873  0.9413E+02  0.3030E+03
     -4.815  0.8736E+02  0.3080E+03
     -4.757  0.7758E+02  0.3125E+03
     -4.699  0.6903E+02  0.3165E+03
     -4.641  0.6584E+02  0.3204E+03
     -4.583  0.6962E+02  0.3244E+03
     -4.525  0.7863E+02  0.3290E+03
     -4.467  0.9013E+02  0.3342E+03
     -4.409  0.1023E+03  0.3401E+03
     -4.351  0.1132E+03  0.3467E+03
     -4.293  0.1187E+03  0.3536E+03
     -4.235  0.1142E+03  0.3602E+03
     -4.177  0.9806E+02  0.3659E+03
     -4.119  0.7464E+02  0.3703E+03
     -4.060  0.5225E+02  0.3733E+03
     -4.002  0.3852E+02  0.3755E+03
     -3.944  0.3584E+02  0.3776E+03
     -3.886  0.4109E+02  0.3800E+03
     -3.828  0.4928E+02  0.3829E+03
     -3.770  0.5681E+02  0.3862E+03
     -3.712  0.6206E+02  0.3898E+03
     -3.654  0.6472E+02  0.3935E+03
     -3.596  0.6566E+02  0.3973E+03
     -3.538  0.6654E+02  0.4012E+03
     -3.480  0.6847E+02  0.4052E+03
     -3.422  0.7094E+02  0.4093E+03
     -3.364  0.7231E+02  0.4135E+03
     -3.306  0.7170E+02  0.4176E+03
     -3.248  0.7020E+02  0.4217E+03
     -3.190  0.7048E+02  0.4258E+03
     -3.132  0.7564E+02  0.4302E+03
     -3.074  0.8778E+02  0.4353E+03
     -3.016  0.1060E+03  0.4414E+03
     -2.958  0.1246E+03  0.4487E+03
     -2.900  0.1346E+03  0.4565E+03
     -2.842  0.1290E+03  0.4640E+03
     -2.784  0.1084E+03  0.4703E+03
     -2.725  0.8083E+02  0.4750E+03
     -2.667  0.5720E+02  0.4783E+03
     -2.609  0.4557E+02  0.4809E+03
     -2.551  0.4792E+02  0.4837E+03
     -2.493  0.5972E+02  0.4872E+03
     -2.435  0.7287E+02  0.4914E+03
     -2.377  0.8074E+02  0.4961E+03
     -2.319  0.8225E+02  0.5009E+03
     -2.261  0.8134E+02  0.5056E+03
     -2.203  0.8211E+02  0.5103E+03
     -2.145  0.8502E+02  0.5153E+03
     -2.087  0.8859E+02  0.5204E+03
     -2.029  0.9413E+02  0.5259E+03
     -1.971  0.1063E+03  0.5321E+03
     -1.913  0.1269E+03  0.5394E+03
     -1.855  0.1490E+03  0.5481E+03
     -1.797  0.1593E+03  0.5573E+03
     -1.739  0.1486E+03  0.5659E+03
     -1.681  0.1203E+03  0.5729E+03
     -1.623  0.8883E+02  0.5781E+03
     -1.565  0.6900E+02  0.5821E+03
     -1.507  0.6574E+02  0.5859E+03
     -1.449  0.7321E+02  0.5901E+03
     -1.390  0.8214E+02  0.5949E+03
     -1.332  0.8833E+02  0.6000E+03
     -1.274  0.9499E+02  0.6056E+03
     -1.216  0.1071E+03  0.6118E+03
     -1.158  0.1235E+03  0.6189E+03
     -1.100  0.1356E+03  0.6268E+03
     -1.042  0.1338E+03  0.6346E+03
     -0.984  0.1178E+03  0.6414E+03
     -0.926  0.9758E+02  0.6471E+03
     -0.868  0.8584E+02  0.6521E+03
     -0.810  0.8747E+02  0.6571E+03
     -0.752  0.9751E+02  0.6628E+03
     -0.694  0.1083E+03  0.6691E+03
     -0.636  0.1164E+03  0.6758E+03
     -0.578  0.1225E+03  0.6829E+03
     -0.520  0.1260E+03  0.6903E+03
     -0.462  0.1245E+03  0.6975E+03
     -0.404  0.1161E+03  0.7042E+03
     -0.346  0.1025E+03  0.7102E+03
     -0.288  0.8784E+02  0.7153E+03
     -0.230  0.7685E+02  0.7197E+03
     -0.172  0.7232E+02  0.7239E+03
     -0.114  0.7301E+02  0.7282E+03
     -0.055  0.7437E+02  0.7325E+03
      0.003  0.7287E+02  0.7367E+03
      0.061  0.7000E+02  0.7408E+03
      0.119  0.7107E+02  0.7449E+03
      0.177  0.7941E+02  0.7495E+03
      0.235  0.9240E+02  0.7549E+03
      0.293  0.1037E+03  0.7609E+03
      0.351  0.1087E+03  0.7672E+03
      0.409  0.1068E+03  0.7734E+03
      0.467  0.9976E+02  0.7792E+03
      0.525  0.8974E+02  0.7844E+03
      0.583  0.7994E+02  0.7890E+03
      0.641  0.7483E+02  0.7934E+03
      0.699  0.7851E+02  0.7979E+03
      0.757  0.9207E+02  0.8033E+03
      0.815  0.1124E+03  0.8098E+03
      0.873  0.1336E+03  0.8176E+03
      0.931  0.1501E+03  0.8263E+03
      0.989  0.1577E+03  0.8354E+03
      1.047  0.1550E+03  0.8444E+03
      1.105  0.1447E+03  0.8528E+03
      1.163  0.1338E+03  0.8606E+03
      1.221  0.1308E+03  0.8682E+03
      1.279  0.1385E+03  0.8762E+03
      1.338  0.1512E+03  0.8850E+03
      1.396  0.1572E+03  0.8941E+03
      1.454  0.1488E+03  0.9028E+03
      1.512  0.1289E+03  0.9103E+03
      1.570  0.1095E+03  0.9166E+03
      1.628  0.1016E+03  0.9225E+03
      1.686  0.1059E+03  0.9287E+03
      1.744  0.1137E+03  0.9353E+03
      1.802  0.1159E+03  0.9420E+03
      1.860  0.1113E+03  0.9484E+03
      1.918  0.1051E+03  0.9545E+03
      1.976  0.1025E+03  0.9605E+03
      2.034  0.1044E+03  0.9666E+03
      2.092  0.1075E+03  0.9728E+03
      2.150  0.1060E+03  0.9789E+03
      2.208  0.9497E+02  0.9845E+03
      2.266  0.7310E+02  0.9887E+03
      2.324  0.4534E+02  0.9913E+03
      2.382  0.2009E+02  0.9925E+03
      2.440  0.3609E+01  0.9927E+03
      2.498 -0.3349E+01  0.9925E+03
      2.556 -0.4157E+01  0.9923E+03
      2.614 -0.2720E+01  0.9921E+03
      2.673 -0.1290E+01  0.9920E+03
      2.731 -0.4790E+00  0.9920E+03
      2.789 -0.1438E+00  0.9920E+03
      2.847 -0.3540E-01  0.9920E+03
      2.905 -0.7218E-02  0.9920E+03
      2.963 -0.1226E-02  0.9920E+03
      3.021 -0.1739E-03  0.9920E+03
      3.079 -0.2068E-04  0.9920E+03
      3.137 -0.2064E-05  0.9920E+03
      3.195 -0.1732E-06  0.9920E+03
      3.253 -0.1223E-07  0.9920E+03
      3.311 -0.7270E-09  0.9920E+03
      3.369 -0.3643E-10  0.9920E+03
      3.427 -0.1530E-11  0.9920E+03
      3.485 -0.5356E-13  0.9920E+03
      3.543  0.0000E+00  0.9920E+03
      3.601  0.0000E+00  0.9920E+03
      3.659  0.0000E+00  0.9920E+03
      3.717  0.0000E+00  0.9920E+03
      3.775  0.0000E+00  0.9920E+03
      3.833  0.0000E+00  0.9920E+03
      3.891  0.0000E+00  0.9920E+03
      3.949  0.0000E+00  0.9920E+03
      4.008  0.0000E+00  0.9920E+03
      4.066  0.0000E+00  0.9920E+03
      4.124  0.0000E+00  0.9920E+03
      4.182  0.0000E+00  0.9920E+03
      4.240  0.0000E+00  0.9920E+03
