  240  240    1    1
  0.4775178E+02  0.1145513E-08  0.1718269E-08  0.5822500E-08  0.5000000E-15
  1.000000000000000E-004
  CAR 
 unknown system                          
    720      1    496
 
  0.0000000E+00  0.0000000E+00  0.0000000E+00  0.1000000E+01
    1      -11.173279   1.000000
    2      -10.914500   1.000000
    3      -10.687433   1.000000
    4      -10.668084   1.000000
    5      -10.493086   1.000000
    6      -10.416349   1.000000
    7      -10.403777   1.000000
    8      -10.085777   1.000000
    9      -10.037630   1.000000
   10      -10.012276   1.000000
   11       -9.975263   1.000000
   12       -9.895968   1.000000
   13       -9.817065   1.000000
   14       -9.777165   1.000000
   15       -9.623248   1.000000
   16       -9.566125   1.000000
   17       -9.546682   1.000000
   18       -9.506132   1.000000
   19       -9.425604   1.000000
   20       -9.421756   1.000000
   21       -9.367797   1.000000
   22       -9.358841   1.000000
   23       -9.316227   1.000000
   24       -9.298559   1.000000
   25       -9.287250   1.000000
   26       -9.270710   1.000000
   27       -9.207426   1.000000
   28       -9.166455   1.000000
   29       -9.125060   1.000000
   30       -8.949281   1.000000
   31       -8.912441   1.000000
   32       -8.907128   1.000000
   33       -8.890130   1.000000
   34       -8.875161   1.000000
   35       -8.856062   1.000000
   36       -8.787386   1.000000
   37       -8.755928   1.000000
   38       -8.698837   1.000000
   39       -8.645490   1.000000
   40       -8.534775   1.000000
   41       -8.490461   1.000000
   42       -8.338284   1.000000
   43       -8.293137   1.000000
   44       -8.275283   1.000000
   45       -8.261639   1.000000
   46       -8.251496   1.000000
   47       -8.166913   1.000000
   48       -8.091551   1.000000
   49       -8.088668   1.000000
   50       -8.064540   1.000000
   51       -8.035041   1.000000
   52       -7.996162   1.000000
   53       -7.934332   1.000000
   54       -7.904320   1.000000
   55       -7.850693   1.000000
   56       -7.846409   1.000000
   57       -7.819431   1.000000
   58       -7.811253   1.000000
   59       -7.769587   1.000000
   60       -7.755709   1.000000
   61       -7.637914   1.000000
   62       -7.577534   1.000000
   63       -7.572235   1.000000
   64       -7.538875   1.000000
   65       -7.444007   1.000000
   66       -7.434489   1.000000
   67       -7.386586   1.000000
   68       -7.370998   1.000000
   69       -7.291971   1.000000
   70       -7.225801   1.000000
   71       -7.216612   1.000000
   72       -7.186740   1.000000
   73       -7.166725   1.000000
   74       -6.865970   1.000000
   75       -6.859562   1.000000
   76       -6.844811   1.000000
   77       -6.819041   1.000000
   78       -6.810385   1.000000
   79       -6.779406   1.000000
   80       -6.760341   1.000000
   81       -6.752870   1.000000
   82       -6.730072   1.000000
   83       -6.721450   1.000000
   84       -6.704536   1.000000
   85       -6.674032   1.000000
   86       -6.670910   1.000000
   87       -6.649131   1.000000
   88       -6.516290   1.000000
   89       -6.486480   1.000000
   90       -6.473219   1.000000
   91       -6.451701   1.000000
   92       -6.358137   1.000000
   93       -6.324154   1.000000
   94       -6.288460   1.000000
   95       -6.273361   1.000000
   96       -6.257619   1.000000
   97       -6.238676   1.000000
   98       -6.222164   1.000000
   99       -6.189993   1.000000
  100       -6.160248   1.000000
  101       -6.152559   1.000000
  102       -6.136175   1.000000
  103       -6.130360   1.000000
  104       -6.100164   1.000000
  105       -6.085758   1.000000
  106       -6.072553   1.000000
  107       -6.056124   1.000000
  108       -6.025443   1.000000
  109       -6.011350   1.000000
  110       -5.990255   1.000000
  111       -5.969825   1.000000
  112       -5.948488   1.000000
  113       -5.762289   1.000000
  114       -5.745701   1.000000
  115       -5.725223   1.000000
  116       -5.711353   1.000000
  117       -5.698631   1.000000
  118       -5.678933   1.000000
  119       -5.663510   1.000000
  120       -5.634322   1.000000
  121       -5.627568   1.000000
  122       -5.602112   1.000000
  123       -5.585070   1.000000
  124       -5.576447   1.000000
  125       -5.562685   1.000000
  126       -5.548712   1.000000
  127       -5.510525   1.000000
  128       -5.490142   1.000000
  129       -5.476853   1.000000
  130       -5.448057   1.000000
  131       -5.419752   1.000000
  132       -5.403211   1.000000
  133       -5.391804   1.000000
  134       -5.369448   1.000000
  135       -5.349552   1.000000
  136       -5.324385   1.000000
  137       -5.264658   1.000000
  138       -5.253907   1.000000
  139       -5.229526   1.000000
  140       -5.205510   1.000000
  141       -5.075394   1.000000
  142       -5.053297   1.000000
  143       -5.039627   1.000000
  144       -5.024394   1.000000
  145       -5.018136   1.000000
  146       -5.005426   1.000000
  147       -4.997975   1.000000
  148       -4.984062   1.000000
  149       -4.959448   1.000000
  150       -4.936325   1.000000
  151       -4.875100   1.000000
  152       -4.860076   1.000000
  153       -4.844256   1.000000
  154       -4.820048   1.000000
  155       -4.801788   1.000000
  156       -4.799970   1.000000
  157       -4.768257   1.000000
  158       -4.750606   1.000000
  159       -4.738009   1.000000
  160       -4.614345   1.000000
  161       -4.607090   1.000000
  162       -4.578873   1.000000
  163       -4.564672   1.000000
  164       -4.556777   1.000000
  165       -4.540204   1.000000
  166       -4.511425   1.000000
  167       -4.498873   1.000000
  168       -4.442095   1.000000
  169       -4.432435   1.000000
  170       -4.412171   1.000000
  171       -4.381605   1.000000
  172       -4.366012   1.000000
  173       -4.348660   1.000000
  174       -4.337446   1.000000
  175       -4.327875   1.000000
  176       -4.320113   1.000000
  177       -4.289590   1.000000
  178       -4.279199   1.000000
  179       -4.272033   1.000000
  180       -4.262260   1.000000
  181       -4.242775   1.000000
  182       -4.201974   1.000000
  183       -4.197087   1.000000
  184       -4.172461   1.000000
  185       -4.153081   1.000000
  186       -4.137440   1.000000
  187       -4.129384   1.000000
  188       -3.940690   1.000000
  189       -3.924372   1.000000
  190       -3.921293   1.000000
  191       -3.904987   1.000000
  192       -3.803170   1.000000
  193       -3.758714   1.000000
  194       -3.747261   1.000000
  195       -3.743010   1.000000
  196       -3.701391   1.000000
  197       -3.682100   1.000000
  198       -3.618028   1.000000
  199       -3.593796   1.000000
  200       -3.582361   1.000000
  201       -3.564879   1.000000
  202       -3.484136   1.000000
  203       -3.474830   1.000000
  204       -3.455967   1.000000
  205       -3.425546   1.000000
  206       -3.382252   1.000000
  207       -3.372974   1.000000
  208       -3.359185   1.000000
  209       -3.333305   1.000000
  210       -3.291147   1.000000
  211       -3.267885   1.000000
  212       -3.239850   1.000000
  213       -3.174055   1.000000
  214       -3.166535   1.000000
  215       -3.150850   1.000000
  216       -3.142832   1.000000
  217       -3.106152   1.000000
  218       -3.091481   1.000000
  219       -3.019210   1.000000
  220       -3.002574   1.000000
  221       -2.994705   1.000000
  222       -2.988544   1.000000
  223       -2.970054   1.000000
  224       -2.956881   1.000000
  225       -2.951866   1.000000
  226       -2.934909   1.000000
  227       -2.919382   1.000000
  228       -2.915695   1.000000
  229       -2.894759   1.000000
  230       -2.877554   1.000000
  231       -2.867405   1.000000
  232       -2.860639   1.000000
  233       -2.853056   1.000000
  234       -2.844618   1.000000
  235       -2.830726   1.000000
  236       -2.815901   1.000000
  237       -2.741900   1.000000
  238       -2.735776   1.000000
  239       -2.704805   1.000000
  240       -2.694383   1.000000
  241       -2.569747   1.000000
  242       -2.516788   1.000000
  243       -2.502674   1.000000
  244       -2.486008   1.000000
  245       -2.478090   1.000000
  246       -2.421606   1.000000
  247       -2.415537   1.000000
  248       -2.387258   1.000000
  249       -2.371189   1.000000
  250       -2.346259   1.000000
  251       -2.345078   1.000000
  252       -2.340539   1.000000
  253       -2.278382   1.000000
  254       -2.219910   1.000000
  255       -2.183351   1.000000
  256       -2.178675   1.000000
  257       -2.159511   1.000000
  258       -2.150150   1.000000
  259       -2.137285   1.000000
  260       -2.124670   1.000000
  261       -2.096890   1.000000
  262       -2.068986   1.000000
  263       -2.053637   1.000000
  264       -2.033943   1.000000
  265       -2.020059   1.000000
  266       -1.950261   1.000000
  267       -1.944701   1.000000
  268       -1.922508   1.000000
  269       -1.892973   1.000000
  270       -1.892034   1.000000
  271       -1.884307   1.000000
  272       -1.864093   1.000000
  273       -1.856527   1.000000
  274       -1.850499   1.000000
  275       -1.843672   1.000000
  276       -1.830420   1.000000
  277       -1.819472   1.000000
  278       -1.808127   1.000000
  279       -1.795458   1.000000
  280       -1.793667   1.000000
  281       -1.783339   1.000000
  282       -1.774788   1.000000
  283       -1.765585   1.000000
  284       -1.753168   1.000000
  285       -1.740195   1.000000
  286       -1.734837   1.000000
  287       -1.709732   1.000000
  288       -1.702800   1.000000
  289       -1.688582   1.000000
  290       -1.588367   1.000000
  291       -1.549015   1.000000
  292       -1.530444   1.000000
  293       -1.494472   1.000000
  294       -1.468791   1.000000
  295       -1.460255   1.000000
  296       -1.425652   1.000000
  297       -1.399916   1.000000
  298       -1.385439   1.000000
  299       -1.377191   1.000000
  300       -1.370757   1.000000
  301       -1.350929   1.000000
  302       -1.323419   1.000000
  303       -1.295543   1.000000
  304       -1.243006   1.000000
  305       -1.225932   1.000000
  306       -1.194268   1.000000
  307       -1.179883   1.000000
  308       -1.151518   1.000000
  309       -1.149062   1.000000
  310       -1.144468   1.000000
  311       -1.133631   1.000000
  312       -1.117686   1.000000
  313       -1.115235   1.000000
  314       -1.106163   1.000000
  315       -1.089131   1.000000
  316       -1.075293   1.000000
  317       -1.071081   1.000000
  318       -1.055782   1.000000
  319       -1.034276   1.000000
  320       -1.024274   1.000000
  321       -1.014127   1.000000
  322       -1.003334   1.000000
  323       -0.982525   1.000001
  324       -0.951146   1.000002
  325       -0.933196   1.000003
  326       -0.822560   1.000103
  327       -0.811516   1.000139
  328       -0.804794   1.000167
  329       -0.785474   1.000277
  330       -0.774894   1.000362
  331       -0.761393   1.000506
  332       -0.757248   1.000560
  333       -0.744208   1.000763
  334       -0.727357   1.001122
  335       -0.711202   1.001600
  336       -0.703777   1.001873
  337       -0.702100   1.001940
  338       -0.613818   1.009678
  339       -0.595305   1.012700
  340       -0.585948   1.014433
  341       -0.572766   1.017089
  342       -0.566007   1.018536
  343       -0.561079   1.019622
  344       -0.535618   1.025456
  345       -0.530756   1.026570
  346       -0.522935   1.028319
  347       -0.509082   1.031187
  348       -0.495616   1.033481
  349       -0.481870   1.035028
  350       -0.463712   1.035249
  351       -0.436324   1.029704
  352       -0.411692   1.016055
  353       -0.397935   1.003824
  354       -0.362056   0.952881
  355       -0.355385   0.940050
  356       -0.344346   0.916371
  357       -0.337679   0.900579
  358       -0.306459   0.811970
  359       -0.278551   0.714248
  360       -0.265846   0.665124
  361       -0.188254   0.343571
  362       -0.157677   0.228909
  363       -0.146851   0.192543
  364       -0.108527   0.085838
  365       -0.093739   0.054454
  366       -0.076924   0.025343
  367       -0.055370  -0.002376
  368       -0.022069  -0.027028
  369       -0.008684  -0.031924
  370        0.012973  -0.035312
  371        0.032177  -0.034847
  372        0.066114  -0.029378
  373        0.168334  -0.008758
  374        0.172606  -0.008182
  375        0.196931  -0.005429
  376        0.223571  -0.003316
  377        0.231229  -0.002855
  378        0.236200  -0.002585
  379        0.247597  -0.002048
  380        0.256338  -0.001704
  381        0.274815  -0.001138
  382        0.300979  -0.000621
  383        0.336028  -0.000260
  384        0.345598  -0.000202
  385        0.362955  -0.000127
  386        0.386089  -0.000066
  387        0.418332  -0.000026
  388        0.425968  -0.000020
  389        0.447221  -0.000010
  390        0.463964  -0.000006
  391        0.469625  -0.000005
  392        0.493732  -0.000002
  393        0.510936  -0.000001
  394        0.537157  -0.000000
  395        0.586700  -0.000000
  396        0.620720  -0.000000
  397        0.625248  -0.000000
  398        0.631203  -0.000000
  399        0.699590  -0.000000
  400        0.723281  -0.000000
  401        0.746510  -0.000000
  402        0.774078  -0.000000
  403        0.799941  -0.000000
  404        0.807485  -0.000000
  405        0.820275  -0.000000
  406        0.834552  -0.000000
  407        0.840442  -0.000000
  408        0.857808  -0.000000
  409        0.859009  -0.000000
  410        0.865105  -0.000000
  411        0.891223  -0.000000
  412        0.903404  -0.000000
  413        0.929340  -0.000000
  414        0.953362  -0.000000
  415        0.958848  -0.000000
  416        0.972882  -0.000000
  417        0.981918  -0.000000
  418        0.992231  -0.000000
  419        1.000446  -0.000000
  420        1.007924  -0.000000
  421        1.021069  -0.000000
  422        1.031026  -0.000000
  423        1.037882  -0.000000
  424        1.048277  -0.000000
  425        1.066384  -0.000000
  426        1.068976  -0.000000
  427        1.088227  -0.000000
  428        1.097252  -0.000000
  429        1.138503  -0.000000
  430        1.150724  -0.000000
  431        1.164244  -0.000000
  432        1.168564  -0.000000
  433        1.180030  -0.000000
  434        1.232335  -0.000000
  435        1.247714  -0.000000
  436        1.253956  -0.000000
  437        1.268880  -0.000000
  438        1.290805  -0.000000
  439        1.300060  -0.000000
  440        1.316338  -0.000000
  441        1.324220  -0.000000
  442        1.343635  -0.000000
  443        1.347729  -0.000000
  444        1.355749  -0.000000
  445        1.375510  -0.000000
  446        1.381181  -0.000000
  447        1.390262  -0.000000
  448        1.401149  -0.000000
  449        1.410643  -0.000000
  450        1.416113  -0.000000
  451        1.422997  -0.000000
  452        1.437764  -0.000000
  453        1.447296  -0.000000
  454        1.458931  -0.000000
  455        1.473952  -0.000000
  456        1.486959  -0.000000
  457        1.507853  -0.000000
  458        1.526028  -0.000000
  459        1.573440  -0.000000
  460        1.627091  -0.000000
  461        1.651701  -0.000000
  462        1.665223  -0.000000
  463        1.686820  -0.000000
  464        1.690260  -0.000000
  465        1.700227  -0.000000
  466        1.712418  -0.000000
  467        1.724583  -0.000000
  468        1.732427  -0.000000
  469        1.754536  -0.000000
  470        1.764597  -0.000000
  471        1.777026  -0.000000
  472        1.784406  -0.000000
  473        1.811563  -0.000000
  474        1.839180  -0.000000
  475        1.856845  -0.000000
  476        1.872635  -0.000000
  477        1.909617  -0.000000
  478        1.948624  -0.000000
  479        1.957781  -0.000000
  480        1.970426  -0.000000
  481        1.977013  -0.000000
  482        1.999489  -0.000000
  483        2.019778  -0.000000
  484        2.042043  -0.000000
  485        2.053741  -0.000000
  486        2.073313  -0.000000
  487        2.107164  -0.000000
  488        2.139414  -0.000000
  489        2.144258  -0.000000
  490        2.174434  -0.000000
  491        2.182351  -0.000000
  492        2.186702  -0.000000
  493        2.205287  -0.000000
  494        2.214230  -0.000000
  495        2.230878  -0.000000
  496        2.239704  -0.000000
