       N       E                     dE             d eps       ncg     rms          rms(c)
DAV:   1    -0.107279433529E+04   -0.10728E+04   -0.74667E+02  1120   0.299E+01    0.312E+01
DAV:   2    -0.137752522962E+04   -0.30473E+03   -0.82604E+02  1504   0.524E+01    0.478E+01
DAV:   3    -0.122788587864E+04    0.14964E+03   -0.33085E+03  1520   0.660E+01    0.387E+01
DAV:   4    -0.974770162802E+03    0.25312E+03   -0.69346E+02  1424   0.400E+01    0.190E+01
DAV:   5    -0.966615144018E+03    0.81550E+01   -0.24692E+02  1344   0.170E+01    0.134E+01
DAV:   6    -0.970748968512E+03   -0.41338E+01   -0.49097E+01  1264   0.850E+00    0.964E+00
DAV:   7    -0.971784983675E+03   -0.10360E+01   -0.12466E+01  1152   0.706E+00    0.728E+00
DAV:   8    -0.969092307925E+03    0.26927E+01   -0.86887E+00  1216   0.559E+00    0.312E+00
DAV:   9    -0.968769748740E+03    0.32256E+00   -0.38817E+00  1184   0.281E+00    0.267E+00
DAV:  10    -0.968725504040E+03    0.44245E-01   -0.10460E+00  1280   0.135E+00    0.297E+00
DAV:  11    -0.968743542341E+03   -0.18038E-01   -0.22436E-01  1312   0.513E-01    0.360E+00
DAV:  12    -0.968780396566E+03   -0.36854E-01   -0.42135E-02  1200   0.267E-01    0.418E+00
DAV:  13    -0.968831841228E+03   -0.51445E-01   -0.14557E-01  1168   0.586E-01    0.256E+00
DAV:  14    -0.968795476923E+03    0.36364E-01   -0.38283E-01  1184   0.942E-01    0.676E+00
DAV:  15    -0.968814665160E+03   -0.19188E-01   -0.25168E-01  1184   0.714E-01    0.113E+01
DAV:  16    -0.968796534436E+03    0.18131E-01   -0.66143E-02  1152   0.327E-01    0.108E+01
DAV:  17    -0.968779894894E+03    0.16640E-01   -0.11666E-02  1264   0.121E-01    0.102E+01
DAV:  18    -0.968763468311E+03    0.16427E-01   -0.46431E-03  1232   0.893E-02    0.933E+00
DAV:  19    -0.968729447503E+03    0.34021E-01   -0.36980E-02  1152   0.205E-01    0.562E+00
DAV:  20    -0.968723962609E+03    0.54849E-02   -0.13245E-02  1280   0.130E-01    0.401E+00
DAV:  21    -0.968723105975E+03    0.85663E-03   -0.24476E-03  1200   0.572E-02    0.345E+00
DAV:  22    -0.968722128103E+03    0.97787E-03   -0.98144E-04  1216   0.350E-02    0.276E+00
DAV:  23    -0.968721779688E+03    0.34842E-03   -0.73022E-04  1168   0.289E-02    0.206E+00
DAV:  24    -0.968721765168E+03    0.14521E-04   -0.12324E-03  1104   0.351E-02    0.114E+00
DAV:  25    -0.968722277100E+03   -0.51193E-03   -0.81745E-04  1264   0.282E-02    0.591E-01
DAV:  26    -0.968722899778E+03   -0.62268E-03   -0.23293E-04   880   0.163E-02    0.335E-01
DAV:  27    -0.968723538102E+03   -0.63832E-03   -0.23875E-04   944   0.151E-02    0.912E-02
DAV:  28    -0.968724815979E+03   -0.12779E-02   -0.38691E-04   880   0.180E-02    0.212E-01
DAV:  29    -0.968725329191E+03   -0.51321E-03   -0.10012E-04   768   0.108E-02    0.307E-01
DAV:  30    -0.968725659893E+03   -0.33070E-03   -0.40852E-05   640   0.698E-03    0.211E-01
DAV:  31    -0.968725882729E+03   -0.22284E-03   -0.37449E-05   672   0.642E-03    0.109E-01
DAV:  32    -0.968726005385E+03   -0.12266E-03   -0.16748E-05   592   0.428E-03    0.561E-02
DAV:  33    -0.968726104691E+03   -0.99305E-04   -0.89868E-06   576   0.317E-03
   1 F= -.96872610E+03 E0= -.96878039E+03  d E =0.162847E+00
