 vasp.5.4.4.18Apr17-6-g9f103f2a35 (build May 07 2018 22:18:08) complex          
  
 executed on             LinuxIFC date 2020.08.14  16:38:30
 running on   64 total cores
 distrk:  each k-point on   64 cores,    1 groups
 distr:  one band on NCORES_PER_BAND=   4 cores,   16 groups


--------------------------------------------------------------------------------------------------------


 INCAR:
 POTCAR:    PAW Al 17Apr2000                      
 POTCAR:    PAW Al 17Apr2000                      
   VRHFIN =Al: s2p1                                                             
   LEXCH  = CA                                                                  
   EATOM  =    53.7930 eV,    3.9537 Ry                                         
                                                                                
   TITEL  = PAW Al 17Apr2000                                                    
   LULTRA =        F    use ultrasoft PP ?                                      
   IUNSCR =        1    unscreen: 0-lin 1-nonlin 2-no                           
   RPACOR =    1.500    partial core radius                                     
   POMASS =   26.981; ZVAL   =    3.000    mass and valenz                      
   RCORE  =    1.900    outmost cutoff radius                                   
   RWIGS  =    2.650; RWIGS  =    1.402    wigner-seitz radius (au A)           
   ENMAX  =  240.957; ENMIN  =  180.718 eV                                      
   ICORE  =        2    local potential                                         
   LCOR   =        T    correct aug charges                                     
   LPAW   =        T    paw PP                                                  
   EAUG   =  291.052                                                            
   DEXC   =    0.000                                                            
   RMAX   =    1.939    core radius for proj-oper                               
   RAUG   =    1.300    factor for augmentation sphere                          
   RDEP   =    1.966    radius for radial grids                                 
   RDEPT  =    1.871    core radius for aug-charge                              
                                                                                
   Atomic configuration                                                         
    6 entries                                                                   
     n  l   j            E        occ.                                          
     1  0  0.50     -1502.2303   2.0000                                         
     2  0  0.50      -107.3893   2.0000                                         
     2  1  1.50       -69.6946   6.0000                                         
     3  0  0.50        -7.8312   2.0000                                         
     3  1  1.50        -2.7901   1.0000                                         
     3  2  2.50        -2.7212   0.0000                                         
   Description                                                                  
     l       E           TYP  RCUT    TYP  RCUT                                 
     0     -7.8312058     23  1.900                                             
     0     -3.5156079     23  1.900                                             
     1     -2.7900872     23  1.900                                             
     1     13.6058260     23  1.900                                             
     2     -2.7211652      7  1.900                                             
  local pseudopotential read in
  partial core-charges read in
  partial kinetic energy density read in
  atomic valenz-charges read in
  non local Contribution for L=           0  read in
    real space projection operators read in
  non local Contribution for L=           0  read in
    real space projection operators read in
  non local Contribution for L=           1  read in
    real space projection operators read in
  non local Contribution for L=           1  read in
    real space projection operators read in
    PAW grid and wavefunctions read in
 
   number of l-projection  operators is LMAX  =           4
   number of lm-projection operators is LMMAX =           8
 

 ----------------------------------------------------------------------------- 
|                                                                             |
|  ADVICE TO THIS USER RUNNING 'VASP/VAMP'   (HEAR YOUR MASTER'S VOICE ...):  |
|                                                                             |
|      You have a (more or less) 'large supercell' and for larger cells       |
|      it might be more efficient to use real space projection opertators     |
|      So try LREAL= Auto  in the INCAR   file.                               |
|      Mind:          For very  accurate calculation you might also keep the  |
|      reciprocal projection scheme          (i.e. LREAL=.FALSE.)             |
|                                                                             |
 ----------------------------------------------------------------------------- 

  PAW Al 17Apr2000                      :
 energy of atom  1       EATOM=  -53.7930
 kinetic energy error for atom=    0.0031 (will be added to EATOM!!)
 
 
 POSCAR: Al                                      
  positions in cartesian coordinates
  No initial velocities read in
 exchange correlation table for  LEXCH =        2
   RHO(1)=    0.500       N(1)  =     2000
   RHO(2)=  100.500       N(2)  =     4000
 


--------------------------------------------------------------------------------------------------------


 ion  position               nearest neighbor table
   1  0.114  0.075  0.345-  25 2.75   2 2.81  26 2.83  29 2.84   4 2.85  21 2.85  30 2.91   5 3.03

   2  0.358  0.082  0.340-   1 2.81  30 2.90  26 2.91   6 2.94   3 2.96  22 2.99  27 3.08  31 3.10

   3  0.615  0.083  0.346-  31 2.75  32 2.80  27 2.81  28 2.85   7 2.86   4 2.90  23 2.92   2 2.96

   4  0.867  0.085  0.341-  24 2.83   1 2.85   8 2.89   3 2.90  29 2.95  32 2.95  28 3.00  25 3.09

   5  0.110  0.251  0.343-   8 2.73  33 2.82  30 2.88  34 2.88  29 2.89   9 2.94   6 3.02   1 3.03

   6  0.374  0.252  0.344-  30 2.76   7 2.76  34 2.77  10 2.83  31 2.86  35 2.92   2 2.94   5 3.02

   7  0.615  0.249  0.343-   6 2.76  11 2.81   3 2.86  31 2.89  36 2.91  32 2.92   8 2.95  35 2.96

   8  0.872  0.252  0.345-   5 2.73  12 2.78  33 2.83  36 2.85  29 2.85  32 2.86   4 2.89   7 2.95

   9  0.114  0.422  0.343-  37 2.83  13 2.88  12 2.89  34 2.89  10 2.91   5 2.94  38 2.94  33 3.01

  10  0.368  0.416  0.342-  11 2.77  34 2.79   6 2.83  39 2.83  14 2.86  38 2.86   9 2.91  35 2.98

  11  0.610  0.413  0.343-  10 2.77  35 2.81   7 2.81  39 2.85  36 2.89  12 2.90  40 2.98  15 3.00

  12  0.863  0.414  0.343-   8 2.78  36 2.87  40 2.88   9 2.89  11 2.90  37 2.94  16 2.99  33 3.06

  13  0.116  0.590  0.342-  14 2.72  41 2.78  17 2.80  42 2.88   9 2.88  16 2.95  38 3.02  37 3.07

  14  0.353  0.582  0.342-  13 2.72  18 2.74  38 2.74  42 2.84  39 2.85  10 2.86  43 2.87  15 2.96

  15  0.611  0.587  0.342-  19 2.73  43 2.75  16 2.83  39 2.87  44 2.91  40 2.95  14 2.96  11 3.00

  16  0.858  0.588  0.343-  44 2.77  40 2.80  41 2.82  15 2.83  20 2.87  13 2.95  12 2.99  37 3.10

  17  0.115  0.753  0.343-  21 2.69  18 2.77  13 2.80  46 2.86  45 2.88  41 2.94  20 2.95  42 2.97

  18  0.356  0.741  0.344-  14 2.74  42 2.76  17 2.77  43 2.79  46 2.86  22 2.87  47 2.94  19 2.99

  19  0.617  0.746  0.343-  15 2.73  20 2.76  43 2.81  48 2.82  44 2.83  23 2.87  47 2.89  18 2.99

  20  0.857  0.755  0.342-  19 2.76  48 2.82  24 2.84  44 2.86  16 2.87  45 2.95  17 2.95  41 3.05

  21  0.110  0.910  0.343-  17 2.69   1 2.85  24 2.86  45 2.86  46 2.89  22 2.93  25 2.93  26 3.08

  22  0.366  0.908  0.344-  46 2.77  47 2.80  26 2.86  18 2.87  23 2.88  27 2.91  21 2.93   2 2.99

  23  0.617  0.913  0.343-  48 2.74  24 2.80  19 2.87  22 2.88  47 2.92   3 2.92  27 2.96  28 3.02

  24  0.861  0.920  0.343-  23 2.80   4 2.83  20 2.84  21 2.86  28 2.87  48 2.88  25 3.00  45 3.01

  25  0.999  0.999  0.380-  49 2.71   1 2.75  69 2.76  29 2.83  45 2.86  28 2.87  52 2.89  26 2.90
                            72 2.92  21 2.93  24 3.00   4 3.09
  26  0.253  0.000  0.379-  27 2.70  50 2.70   1 2.83  69 2.86  22 2.86  46 2.89  49 2.90  25 2.90
                            70 2.91   2 2.91  30 2.92  21 3.08
  27  0.488  0.998  0.379-  26 2.70  70 2.77  50 2.78  71 2.81   3 2.81  51 2.85  31 2.88  47 2.91
                            22 2.91  23 2.96  28 2.98   2 3.08
  28  0.748  0.000  0.380-  71 2.81  52 2.82   3 2.85  48 2.85  32 2.85  51 2.87  24 2.87  25 2.87
                            72 2.91  27 2.98   4 3.00  23 3.02
  29  0.994  0.163  0.379-  49 2.76  25 2.83  32 2.84   1 2.84  33 2.85   8 2.85  53 2.85  52 2.87
                             5 2.89  56 2.90  30 2.93   4 2.95
  30  0.249  0.170  0.377-   6 2.76  31 2.80  54 2.85  50 2.86  34 2.86  53 2.86   5 2.88   2 2.90
                             1 2.91  26 2.92  29 2.93  49 3.00
  31  0.493  0.165  0.379-  51 2.69   3 2.75  54 2.80  30 2.80  50 2.82   6 2.86  55 2.87  27 2.88
                             7 2.89  32 2.89  35 2.99   2 3.10
  32  0.746  0.166  0.379-  56 2.75  51 2.78   3 2.80  55 2.80  29 2.84  28 2.85   8 2.86  52 2.88
                            36 2.89  31 2.89   7 2.92   4 2.95
  33  0.001  0.329  0.380-  53 2.74  57 2.76  37 2.82   5 2.82  34 2.83   8 2.83  56 2.84  60 2.84
                            29 2.85  36 2.99   9 3.01  12 3.06
  34  0.247  0.336  0.376-   6 2.77  10 2.79  38 2.82  57 2.83  33 2.83  58 2.84  30 2.86  35 2.88
                            54 2.88   5 2.88   9 2.89  53 2.98
  35  0.497  0.339  0.380-  59 2.71  54 2.77  36 2.78  39 2.80  58 2.81  11 2.81  55 2.81  34 2.88
                             6 2.92   7 2.96  10 2.98  31 2.99
  36  0.740  0.334  0.379-  55 2.74  35 2.78  59 2.78  60 2.81  56 2.81   8 2.85  12 2.87  11 2.89
                            32 2.89  40 2.90   7 2.91  33 2.99
  37  0.994  0.492  0.380-  60 2.71  61 2.75  57 2.79  33 2.82   9 2.83  64 2.85  40 2.87  41 2.88
                            12 2.94  38 2.98  13 3.07  16 3.10
  38  0.254  0.501  0.378-  39 2.66  14 2.74  58 2.80  42 2.81  34 2.82  61 2.85  62 2.86  10 2.86
                            57 2.91   9 2.94  37 2.98  13 3.02
  39  0.486  0.501  0.376-  38 2.66  43 2.77  35 2.80  10 2.83  11 2.85  14 2.85  63 2.86  62 2.87
                            15 2.87  59 2.92  40 2.96  58 2.98
  40  0.744  0.503  0.378-  63 2.78  64 2.80  16 2.80  59 2.82  44 2.82  60 2.86  37 2.87  12 2.88
                            36 2.90  15 2.95  39 2.96  11 2.98
  41  0.992  0.660  0.378-  68 2.76  13 2.78  61 2.82  16 2.82  64 2.82  44 2.85  37 2.88  42 2.88
                            65 2.93  17 2.94  45 2.96  20 3.05
  42  0.243  0.664  0.379-  18 2.76  38 2.81  61 2.84  43 2.84  14 2.84  65 2.86  62 2.87  13 2.88
                            41 2.88  46 2.89  66 2.89  17 2.97
  43  0.491  0.663  0.376-  15 2.75  39 2.77  18 2.79  19 2.81  42 2.84  47 2.86  63 2.86  14 2.87
                            62 2.89  44 2.89  66 2.96  67 3.03
  44  0.743  0.668  0.378-  16 2.77  68 2.77  40 2.82  19 2.83  67 2.84  63 2.85  41 2.85  20 2.86
                            48 2.87  64 2.89  43 2.89  15 2.91
  45  0.990  0.832  0.379-  68 2.78  69 2.80  72 2.81  65 2.82  25 2.86  21 2.86  17 2.88  46 2.89
                            20 2.95  48 2.95  41 2.96  24 3.01
  46  0.242  0.832  0.378-  69 2.77  22 2.77  47 2.84  65 2.84  18 2.86  17 2.86  42 2.89  70 2.89
                            26 2.89  45 2.89  21 2.89  66 2.97
  47  0.490  0.829  0.378-  70 2.76  48 2.79  22 2.80  46 2.84  43 2.86  66 2.89  19 2.89  71 2.90
                            67 2.91  27 2.91  23 2.92  18 2.94
  48  0.733  0.835  0.377-  23 2.74  47 2.79  20 2.82  19 2.82  71 2.83  28 2.85  67 2.87  44 2.87
                            24 2.88  45 2.95  72 3.01  68 3.02
  49  0.113  0.082  0.412-  25 2.71  29 2.76  52 2.80  74 2.81  53 2.82  77 2.84  50 2.87  26 2.90
                            69 2.90  73 2.91  30 3.00  78 3.02
  50  0.363  0.082  0.412-  26 2.70  74 2.77  27 2.78  31 2.82  30 2.86  78 2.87  49 2.87  51 2.87
                            54 2.95  70 2.95  75 2.96  79 3.08
  51  0.614  0.090  0.412-  31 2.69  32 2.78  55 2.80  79 2.82  27 2.85  28 2.87  50 2.87  80 2.91
                            76 2.91  52 2.92  75 2.96  71 2.97
  52  0.868  0.083  0.414-  49 2.80  77 2.81  80 2.82  28 2.82  76 2.83  56 2.87  29 2.87  32 2.88
                            25 2.89  51 2.92  73 2.94  72 2.95
  53  0.123  0.247  0.413-  33 2.74  77 2.81  78 2.82  49 2.82  57 2.84  29 2.85  54 2.85  30 2.86
                            81 2.87  82 2.92  34 2.98  56 3.01
  54  0.371  0.253  0.412-  35 2.77  58 2.78  31 2.80  83 2.83  78 2.83  30 2.85  53 2.85  34 2.88
                            55 2.92  50 2.95  82 2.97  79 3.06
  55  0.626  0.252  0.412-  56 2.68  36 2.74  80 2.78  51 2.80  32 2.80  35 2.81  84 2.82  83 2.86
                            31 2.87  59 2.90  54 2.92  79 2.93
  56  0.860  0.249  0.413-  55 2.68  80 2.71  32 2.75  36 2.81  84 2.84  33 2.84  52 2.87  81 2.87
                            77 2.88  60 2.88  29 2.90  53 3.01
  57  0.126  0.412  0.412-  58 2.67  82 2.75  33 2.76  37 2.79  86 2.83  34 2.83  81 2.83  61 2.84
                            53 2.84  38 2.91  85 2.92  60 2.96
  58  0.359  0.415  0.413-  57 2.67  86 2.70  82 2.76  54 2.78  38 2.80  35 2.81  34 2.84  87 2.88
                            62 2.89  83 2.90  39 2.98  59 3.00
  59  0.621  0.421  0.412-  35 2.71  63 2.75  87 2.76  36 2.78  40 2.82  60 2.83  84 2.85  55 2.90
                            88 2.90  39 2.92  83 2.96  58 3.00
  60  0.868  0.417  0.412-  37 2.71  36 2.81  64 2.81  84 2.82  59 2.83  81 2.84  33 2.84  40 2.86
                            88 2.87  85 2.87  56 2.88  57 2.96
  61  0.116  0.577  0.412-  37 2.75  85 2.76  41 2.82  42 2.84  57 2.84  86 2.84  38 2.85  64 2.86
                            89 2.86  62 2.97  65 2.97  90 3.00
  62  0.375  0.583  0.413-  87 2.76  86 2.77  63 2.77  66 2.78  90 2.82  38 2.86  91 2.86  39 2.87
                            42 2.87  43 2.89  58 2.89  61 2.97
  63  0.616  0.581  0.411-  59 2.75  62 2.77  40 2.78  87 2.79  44 2.85  39 2.86  43 2.86  64 2.86
                            91 2.87  67 2.89  88 2.93  92 3.10
  64  0.866  0.580  0.412-  68 2.78  88 2.78  40 2.80  60 2.81  85 2.82  92 2.82  41 2.82  37 2.85
                            61 2.86  63 2.86  44 2.89  89 2.91
  65  0.117  0.750  0.413-  89 2.78  68 2.81  69 2.81  45 2.82  93 2.82  46 2.84  94 2.85  42 2.86
                            66 2.92  41 2.93  90 2.96  61 2.97
  66  0.371  0.745  0.414-  90 2.78  62 2.78  94 2.82  91 2.85  70 2.85  95 2.85  47 2.89  42 2.89
                            67 2.90  65 2.92  43 2.96  46 2.97
  67  0.625  0.748  0.413-  96 2.83  68 2.84  91 2.84  44 2.84  48 2.87  95 2.88  63 2.89  71 2.89
                            66 2.90  47 2.91  92 2.94  43 3.03
  68  0.872  0.742  0.411-  41 2.76  44 2.77  45 2.78  64 2.78  65 2.81  92 2.82  67 2.84  89 2.86
                            72 2.91  96 2.94  93 2.97  48 3.02
  69  0.122  0.914  0.412-  25 2.76  46 2.77  45 2.80  74 2.80  65 2.81  26 2.86  72 2.87  94 2.88
                            93 2.90  49 2.90  70 2.95  73 3.00
  70  0.380  0.910  0.413-  71 2.73  47 2.76  27 2.77  95 2.85  66 2.85  94 2.86  46 2.89  74 2.89
                            75 2.89  26 2.91  50 2.95  69 2.95
  71  0.618  0.917  0.412-  70 2.73  27 2.81  28 2.81  48 2.83  76 2.88  67 2.89  75 2.90  47 2.90
                            96 2.90  72 2.91  95 2.95  51 2.97
  72  0.872  0.911  0.415-  96 2.69  93 2.75  45 2.81  69 2.87  68 2.91  71 2.91  28 2.91  25 2.92
                            52 2.95  73 2.96  76 2.97  48 3.01
  73  0.001  1.000  0.450-  74 2.78 120 2.81 100 2.84 117 2.84  93 2.89  97 2.91  49 2.91  77 2.92
                            52 2.94  72 2.96  69 3.00  76 3.06
  74  0.242  0.999  0.445-  50 2.77  73 2.78  69 2.80  49 2.81  70 2.89  94 2.89  75 2.90 117 2.90
                            78 2.98 118 2.99  98 3.05  97 3.09
  75  0.495  1.000  0.448-  76 2.74 119 2.84  98 2.85 118 2.86  79 2.88  70 2.89  71 2.90  74 2.90
                            99 2.94  95 2.94  51 2.96  50 2.96
  76  0.734  0.004  0.448-  99 2.72  75 2.74  52 2.83 119 2.83  71 2.88  80 2.91  51 2.91 100 2.92
                            96 2.95  72 2.97 120 2.99  73 3.06
  77  0.995  0.169  0.447-  52 2.81  53 2.81  81 2.84  49 2.84 100 2.86  80 2.86  56 2.88  73 2.92
                            97 2.94  78 2.96 101 3.04 104 3.10
  78  0.254  0.173  0.447-  53 2.82  54 2.83 102 2.84 101 2.85  98 2.85  82 2.86  50 2.87  79 2.90
                            77 2.96  97 2.97  74 2.98  49 3.02
  79  0.507  0.167  0.449-  80 2.74  98 2.79  83 2.81  51 2.82 103 2.86  75 2.88  78 2.90 102 2.92
                            99 2.93  55 2.93  54 3.06  50 3.08
  80  0.745  0.173  0.447-  56 2.71  79 2.74  55 2.78  52 2.82  84 2.84  77 2.86 100 2.90  51 2.91
                            76 2.91 103 2.94 104 2.99  99 3.01
  81  0.993  0.334  0.446-  57 2.83  60 2.84  77 2.84  82 2.84  53 2.87  84 2.87  56 2.87  85 2.88
                           108 2.91 105 2.91 104 2.95 101 3.01
  82  0.241  0.339  0.448- 105 2.74  57 2.75  86 2.76 101 2.76  58 2.76  81 2.84  78 2.86 106 2.89
                            83 2.91  53 2.92 102 2.96  54 2.97
  83  0.494  0.330  0.447-  79 2.81  54 2.83  84 2.85  55 2.86 102 2.88  58 2.90  87 2.91  82 2.91
                           106 2.92 103 2.94  59 2.96 107 2.97
  84  0.743  0.338  0.447- 107 2.79  88 2.82  60 2.82  55 2.82  56 2.84  80 2.84  59 2.85  83 2.85
                            81 2.87 104 2.91 103 2.96 108 2.96
  85  0.996  0.501  0.446-  61 2.76  64 2.82  89 2.82  88 2.83 109 2.85  60 2.87  81 2.88  86 2.90
                           108 2.91  57 2.92 105 2.96 112 3.08
  86  0.249  0.499  0.446-  58 2.70  82 2.76  62 2.77  90 2.82  57 2.83  61 2.84 106 2.84  87 2.88
                            85 2.90 109 2.95 110 2.96 105 2.96
  87  0.500  0.499  0.446-  59 2.76  62 2.76  63 2.79  91 2.82  88 2.85 106 2.86  86 2.88  58 2.88
                           111 2.88 107 2.89  83 2.91 110 2.98
  88  0.749  0.502  0.447- 107 2.77  64 2.78  84 2.82  92 2.82  85 2.83  87 2.85  60 2.87  59 2.90
                            63 2.93 108 2.94 112 2.95 111 2.96
  89  0.001  0.665  0.447-  92 2.74  65 2.78 113 2.81  85 2.82  90 2.85  68 2.86  61 2.86  93 2.86
                            64 2.91 109 2.93 112 3.03 116 3.04
  90  0.250  0.663  0.448-  66 2.78 110 2.79 113 2.80  86 2.82  62 2.82  89 2.85 114 2.87  94 2.90
                            91 2.92 109 2.95  65 2.96  61 3.00
  91  0.505  0.663  0.448- 111 2.63  87 2.82  67 2.84  95 2.85  66 2.85 110 2.85  62 2.86  63 2.87
                           115 2.87  90 2.92 114 2.93  92 2.95
  92  0.762  0.666  0.448-  89 2.74 112 2.78  68 2.82  64 2.82  88 2.82  96 2.87 116 2.91 111 2.92
                            67 2.94 115 2.94  91 2.95  63 3.10
  93  0.996  0.832  0.448-  72 2.75  96 2.81  65 2.82 116 2.84  89 2.86 113 2.87  94 2.87  73 2.89
                            69 2.90 120 2.90 117 2.96  68 2.97
  94  0.246  0.831  0.447-  66 2.82 117 2.83 113 2.84  65 2.85 114 2.85  70 2.86  93 2.87  95 2.87
                            69 2.88  74 2.89  90 2.90 118 2.94
  95  0.497  0.829  0.449- 114 2.77 115 2.80 119 2.84  91 2.85  70 2.85  66 2.85  94 2.87  67 2.88
                            96 2.91  75 2.94  71 2.95 118 2.95
  96  0.751  0.833  0.447-  72 2.69  93 2.81  67 2.83  92 2.87  71 2.90 116 2.90 115 2.91 120 2.91
                            95 2.91 119 2.91  68 2.94  76 2.95
  97  0.123  0.092  0.484- 126 2.69 125 2.72 101 2.83 121 2.85  98 2.89 122 2.90 100 2.90  73 2.91
                            77 2.94  78 2.97 117 3.04  74 3.09
  98  0.375  0.089  0.482- 127 2.70  79 2.79 102 2.80 123 2.84  75 2.85  78 2.85  97 2.89 118 2.91
                           126 2.94  99 2.96 122 3.02  74 3.05
  99  0.633  0.079  0.484- 124 2.71  76 2.72 100 2.73 127 2.80 123 2.80 119 2.81 128 2.84  79 2.93
                            75 2.94  98 2.96  80 3.01 103 3.01
 100  0.870  0.089  0.482- 125 2.64  99 2.73  73 2.84  77 2.86  97 2.90  80 2.90  76 2.92 121 2.95
                           120 2.95 124 2.97 104 2.98 128 2.99
 101  0.137  0.256  0.483- 102 2.69 105 2.71 126 2.72 130 2.74  82 2.76  97 2.83  78 2.85  81 3.01
                           129 3.02  77 3.04 125 3.05 104 3.14
 102  0.371  0.251  0.483- 101 2.69 127 2.79  98 2.80 131 2.81 126 2.84  78 2.84 130 2.86  83 2.88
                           103 2.90  79 2.92 106 2.96  82 2.96
 103  0.624  0.253  0.484- 104 2.74 128 2.78 127 2.79 132 2.83  79 2.86 107 2.88 131 2.89 102 2.90
                            80 2.94  83 2.94  84 2.96  99 3.01
 104  0.863  0.262  0.484- 108 2.69 103 2.74 129 2.74 132 2.77 125 2.82  84 2.91 128 2.92  81 2.95
                           100 2.98  80 2.99  77 3.10 101 3.14
 105  0.123  0.413  0.482- 101 2.71  82 2.74 109 2.79 108 2.81 130 2.83 134 2.88 106 2.88  81 2.91
                            85 2.96  86 2.96 129 2.96 133 2.97
 106  0.374  0.423  0.482- 110 2.76 135 2.83  86 2.84  87 2.86 105 2.88  82 2.89 131 2.91  83 2.92
                           107 2.93 102 2.96 134 2.98 130 2.99
 107  0.630  0.421  0.481- 136 2.73  88 2.77  84 2.79 108 2.84 103 2.88  87 2.89 111 2.89 106 2.93
                           132 2.93 135 2.96  83 2.97 131 3.07
 108  0.878  0.418  0.483- 104 2.69 133 2.69 105 2.81 129 2.81 107 2.84  85 2.91  81 2.91 112 2.92
                            88 2.94 136 2.94 132 2.95  84 2.96
 109  0.117  0.575  0.483- 134 2.78 138 2.78 105 2.79  85 2.85 133 2.86 137 2.90 112 2.91 113 2.91
                            89 2.93 110 2.94  90 2.95  86 2.95
 110  0.373  0.584  0.482- 111 2.71 106 2.76 139 2.77 138 2.79  90 2.79  91 2.85 114 2.85 135 2.87
                           109 2.94  86 2.96  87 2.98 134 3.00
 111  0.609  0.589  0.482-  91 2.63 110 2.71 139 2.75 115 2.79 140 2.82  87 2.88 107 2.89 136 2.91
                            92 2.92 112 2.92 135 2.93  88 2.96
 112  0.864  0.587  0.485- 137 2.76  92 2.78 133 2.79 140 2.79 136 2.82 109 2.91 116 2.91 108 2.92
                           111 2.92  88 2.95  89 3.03  85 3.08
 113  0.124  0.745  0.481- 138 2.76  90 2.80  89 2.81 142 2.82 114 2.84  94 2.84 116 2.85  93 2.87
                           109 2.91 137 2.92 141 2.92 117 2.93
 114  0.371  0.751  0.482- 142 2.77  95 2.77 143 2.83 139 2.83 113 2.84  94 2.85 110 2.85  90 2.87
                           138 2.87 115 2.89 118 2.90  91 2.93
 115  0.624  0.751  0.483- 140 2.76 111 2.79 144 2.79  95 2.80 119 2.82 139 2.87  91 2.87 116 2.89
                           114 2.89  96 2.91 143 2.92  92 2.94
 116  0.876  0.757  0.484- 141 2.69 120 2.76 144 2.79  93 2.84 137 2.85 113 2.85 115 2.89  96 2.90
                            92 2.91 112 2.91 140 3.00  89 3.04
 117  0.134  0.915  0.483- 118 2.68 142 2.77 122 2.80  94 2.83  73 2.84 121 2.88 141 2.88  74 2.90
                           113 2.93  93 2.96 120 3.00  97 3.04
 118  0.368  0.919  0.483- 117 2.68 143 2.78 123 2.78 122 2.82  75 2.86 142 2.87 119 2.89 114 2.90
                            98 2.91  94 2.94  95 2.95  74 2.99
 119  0.620  0.915  0.482-  99 2.81 144 2.82 115 2.82  76 2.83 124 2.83  95 2.84  75 2.84 143 2.86
                           123 2.86 120 2.89 118 2.89  96 2.91
 120  0.872  0.917  0.483- 116 2.76  73 2.81 121 2.81 124 2.82 141 2.84 144 2.87 119 2.89  93 2.90
                            96 2.91 100 2.95  76 2.99 117 3.00
 121  0.000  0.998  0.517- 168 2.76 145 2.77 122 2.78 120 2.81 165 2.84 125 2.84  97 2.85 141 2.86
                           117 2.88 148 2.91 124 2.94 100 2.95
 122  0.243  0.998  0.518- 121 2.78 166 2.78 117 2.80 165 2.82 118 2.82 146 2.82 145 2.86 123 2.87
                            97 2.90 142 2.96 126 2.98  98 3.02
 123  0.494  0.001  0.516- 118 2.78 127 2.79  99 2.80 147 2.82 143 2.83  98 2.84 119 2.86 124 2.86
                           122 2.87 167 2.89 166 2.90 146 2.92
 124  0.744  0.996  0.517-  99 2.71 168 2.75 144 2.80 120 2.82 119 2.83 167 2.85 123 2.86 147 2.89
                           148 2.90 121 2.94 100 2.97 128 3.02
 125  0.981  0.163  0.515- 100 2.64  97 2.72 148 2.78 128 2.82 104 2.82 121 2.84 126 2.93 129 2.95
                           145 2.95 149 2.97 152 3.04 101 3.05
 126  0.237  0.172  0.517-  97 2.69 101 2.72 149 2.76 150 2.79 130 2.81 102 2.84 146 2.90 125 2.93
                            98 2.94 145 2.96 127 2.98 122 2.98
 127  0.496  0.163  0.515-  98 2.70 128 2.76 102 2.79 123 2.79 103 2.79  99 2.80 147 2.82 146 2.94
                           131 2.96 150 2.97 126 2.98 151 3.05
 128  0.736  0.172  0.519- 151 2.72 127 2.76 147 2.77 103 2.78 152 2.78 125 2.82 132 2.83  99 2.84
                           148 2.85 104 2.92 100 2.99 124 3.02
 129  0.987  0.334  0.519- 104 2.74 132 2.79 153 2.80 133 2.81 108 2.81 149 2.82 152 2.83 156 2.85
                           125 2.95 130 2.95 105 2.96 101 3.02
 130  0.244  0.335  0.518- 101 2.74 131 2.78 126 2.81 153 2.81 105 2.83 134 2.85 102 2.86 154 2.86
                           150 2.87 149 2.87 129 2.95 106 2.99
 131  0.487  0.335  0.518- 130 2.78 102 2.81 135 2.82 154 2.87 150 2.88 103 2.89 155 2.89 106 2.91
                           132 2.93 127 2.96 151 2.98 107 3.07
 132  0.743  0.336  0.519- 152 2.73 155 2.75 104 2.77 129 2.79 151 2.81 136 2.82 103 2.83 128 2.83
                           156 2.89 131 2.93 107 2.93 108 2.95
 133  0.982  0.497  0.517- 108 2.69 112 2.79 129 2.81 160 2.82 156 2.84 109 2.86 136 2.87 137 2.89
                           134 2.89 153 2.95 105 2.97 157 2.99
 134  0.234  0.500  0.518- 109 2.78 138 2.79 158 2.82 154 2.84 153 2.84 130 2.85 157 2.85 105 2.88
                           133 2.89 135 2.97 106 2.98 110 3.00
 135  0.494  0.499  0.518- 158 2.72 136 2.73 131 2.82 106 2.83 155 2.84 139 2.85 154 2.86 110 2.87
                           111 2.93 159 2.95 107 2.96 134 2.97
 136  0.732  0.500  0.517- 135 2.73 107 2.73 155 2.78 159 2.78 112 2.82 132 2.82 140 2.85 133 2.87
                           111 2.91 108 2.94 160 2.95 156 3.06
 137  0.995  0.665  0.517- 112 2.76 164 2.80 138 2.81 161 2.81 116 2.85 141 2.86 133 2.89 157 2.89
                           109 2.90 113 2.92 160 2.94 140 3.04
 138  0.239  0.662  0.515- 113 2.76 109 2.78 134 2.79 110 2.79 137 2.81 142 2.81 114 2.87 161 2.87
                           139 2.91 162 2.92 158 2.96 157 3.00
 139  0.493  0.665  0.516- 140 2.70 111 2.75 110 2.77 162 2.82 114 2.83 158 2.84 135 2.85 115 2.87
                           138 2.91 143 2.95 163 2.95 159 3.03
 140  0.729  0.666  0.517- 139 2.70 115 2.76 159 2.78 164 2.78 112 2.79 163 2.80 111 2.82 136 2.85
                           144 2.88 116 3.00 160 3.03 137 3.04
 141  0.999  0.832  0.517- 116 2.69 142 2.80 168 2.83 161 2.83 120 2.84 137 2.86 121 2.86 165 2.87
                           117 2.88 113 2.92 144 2.95 164 2.97
 142  0.244  0.826  0.516- 162 2.75 114 2.77 117 2.77 161 2.79 141 2.80 143 2.81 138 2.81 113 2.82
                           118 2.87 166 2.92 122 2.96 165 2.98
 143  0.488  0.836  0.517- 162 2.78 118 2.78 166 2.79 142 2.81 114 2.83 123 2.83 119 2.86 167 2.88
                           144 2.91 115 2.92 163 2.93 139 2.95
 144  0.742  0.833  0.517- 116 2.79 115 2.79 124 2.80 119 2.82 163 2.83 168 2.85 164 2.85 120 2.87
                           140 2.88 167 2.89 143 2.91 141 2.95
 145  0.108  0.079  0.552- 148 2.72 169 2.77 121 2.77 165 2.80 173 2.81 122 2.86 149 2.89 170 2.91
                           146 2.92 125 2.95 174 2.96 126 2.96
 146  0.363  0.085  0.552- 150 2.74 122 2.82 174 2.83 175 2.84 170 2.85 147 2.87 126 2.90 166 2.92
                           145 2.92 123 2.92 127 2.94 171 2.98
 147  0.614  0.084  0.551- 175 2.77 128 2.77 127 2.82 123 2.82 151 2.85 167 2.87 146 2.87 176 2.88
                           124 2.89 172 2.91 171 2.94 148 2.94
 148  0.871  0.086  0.551- 145 2.72 125 2.78 172 2.81 173 2.82 169 2.84 128 2.85 168 2.86 176 2.87
                           124 2.90 152 2.91 121 2.91 147 2.94
 149  0.115  0.248  0.551- 126 2.76 153 2.81 129 2.82 150 2.84 173 2.87 130 2.87 145 2.89 178 2.96
                           125 2.97 152 2.97 177 2.98 174 3.02
 150  0.363  0.245  0.552- 146 2.74 126 2.79 178 2.79 149 2.84 175 2.84 130 2.87 131 2.88 174 2.91
                           179 2.92 127 2.97 151 3.02 154 3.02
 151  0.626  0.250  0.553- 152 2.63 128 2.72 175 2.79 179 2.80 176 2.81 132 2.81 180 2.82 147 2.85
                           155 2.90 131 2.98 150 3.02 127 3.05
 152  0.856  0.255  0.553- 151 2.63 180 2.70 132 2.73 128 2.78 156 2.82 129 2.83 176 2.86 148 2.91
                           177 2.93 173 2.96 149 2.97 125 3.04
 153  0.117  0.411  0.552- 178 2.78 129 2.80 156 2.81 149 2.81 130 2.81 177 2.82 154 2.83 134 2.84
                           157 2.94 182 2.95 133 2.95 181 2.99
 154  0.363  0.420  0.553- 178 2.68 158 2.72 183 2.82 153 2.83 182 2.83 134 2.84 130 2.86 135 2.86
                           131 2.87 179 2.89 155 2.97 150 3.02
 155  0.623  0.419  0.552- 184 2.74 132 2.75 136 2.78 159 2.79 183 2.81 135 2.84 156 2.86 179 2.87
                           131 2.89 151 2.90 180 2.94 154 2.97
 156  0.872  0.418  0.554- 177 2.75 160 2.75 184 2.77 181 2.80 180 2.80 153 2.81 152 2.82 133 2.84
                           129 2.85 155 2.86 132 2.89 136 3.06
 157  0.114  0.583  0.554- 186 2.79 160 2.82 161 2.84 134 2.85 181 2.88 182 2.89 137 2.89 153 2.94
                           185 2.97 158 2.99 133 2.99 138 3.00
 158  0.375  0.579  0.551- 135 2.72 154 2.72 183 2.81 186 2.81 134 2.82 139 2.84 162 2.94 159 2.94
                           138 2.96 157 2.99 187 3.00 182 3.01
 159  0.631  0.581  0.553- 184 2.67 160 2.72 140 2.78 136 2.78 155 2.79 183 2.80 188 2.81 187 2.90
                           163 2.94 158 2.94 135 2.95 139 3.03
 160  0.869  0.578  0.553- 159 2.72 156 2.75 184 2.79 157 2.82 133 2.82 164 2.82 181 2.85 188 2.91
                           185 2.93 137 2.94 136 2.95 140 3.03
 161  0.122  0.748  0.551- 142 2.79 189 2.80 137 2.81 162 2.83 141 2.83 157 2.84 138 2.87 190 2.89
                           165 2.90 186 2.92 164 3.00 185 3.08
 162  0.369  0.750  0.550- 142 2.75 143 2.78 139 2.82 191 2.83 161 2.83 190 2.83 166 2.85 186 2.87
                           163 2.89 138 2.92 158 2.94 187 3.06
 163  0.621  0.752  0.552- 164 2.75 140 2.80 191 2.81 144 2.83 167 2.85 162 2.89 192 2.90 187 2.92
                           143 2.93 159 2.94 139 2.95 188 2.96
 164  0.860  0.742  0.551- 163 2.75 140 2.78 137 2.80 160 2.82 144 2.85 188 2.90 185 2.94 192 2.97
                           141 2.97 189 2.98 161 3.00 168 3.05
 165  0.118  0.916  0.552- 168 2.79 170 2.79 169 2.80 145 2.80 189 2.80 122 2.82 121 2.84 166 2.85
                           141 2.87 161 2.90 190 2.95 142 2.98
 166  0.367  0.915  0.551- 122 2.78 143 2.79 170 2.79 162 2.85 165 2.85 190 2.85 167 2.86 191 2.88
                           123 2.90 142 2.92 146 2.92 171 2.92
 167  0.616  0.918  0.552- 172 2.73 171 2.82 163 2.85 124 2.85 166 2.86 147 2.87 143 2.88 123 2.89
                           144 2.89 191 2.92 192 2.94 168 2.97
 168  0.875  0.919  0.550- 124 2.75 172 2.76 121 2.76 165 2.79 169 2.80 141 2.83 144 2.85 148 2.86
                           167 2.97 189 2.99 192 3.03 164 3.05
 169  0.989  0.997  0.585- 172 2.73 145 2.77 168 2.80 165 2.80 196 2.82 148 2.84 216 2.86 173 2.87
                           193 2.91 213 2.92 189 2.92 170 2.94
 170  0.245  0.995  0.586- 165 2.79 166 2.79 194 2.81 174 2.82 146 2.85 171 2.86 213 2.89 190 2.90
                           193 2.90 214 2.91 145 2.91 169 2.94
 171  0.495  0.997  0.587- 215 2.75 194 2.80 167 2.82 195 2.83 170 2.86 175 2.88 166 2.92 172 2.93
                           214 2.93 191 2.94 147 2.94 146 2.98
 172  0.750  0.995  0.584- 167 2.73 169 2.73 168 2.76 192 2.78 148 2.81 216 2.84 176 2.89 196 2.90
                           147 2.91 171 2.93 215 2.96 195 3.10
 173  0.993  0.164  0.586- 196 2.73 200 2.75 145 2.81 148 2.82 149 2.87 169 2.87 176 2.87 193 2.88
                           174 2.88 152 2.96 197 2.96 177 2.97
 174  0.244  0.159  0.588- 194 2.76 193 2.77 170 2.82 198 2.82 146 2.83 173 2.88 150 2.91 197 2.92
                           175 2.92 145 2.96 149 3.02 178 3.06
 175  0.498  0.165  0.585- 147 2.77 176 2.79 151 2.79 195 2.81 146 2.84 150 2.84 171 2.88 179 2.88
                           174 2.92 198 2.94 199 3.00 194 3.01
 176  0.742  0.162  0.587- 196 2.70 195 2.79 175 2.79 151 2.81 200 2.85 152 2.86 148 2.87 173 2.87
                           147 2.88 172 2.89 180 2.92 199 3.00
 177  0.991  0.337  0.588- 156 2.75 200 2.75 180 2.75 181 2.78 201 2.81 197 2.81 204 2.81 153 2.82
                           152 2.93 173 2.97 149 2.98 178 3.02
 178  0.254  0.337  0.585- 154 2.68 182 2.78 179 2.78 153 2.78 202 2.78 150 2.79 197 2.94 201 2.95
                           198 2.96 149 2.96 177 3.02 174 3.06
 179  0.496  0.332  0.586- 178 2.78 202 2.80 151 2.80 199 2.81 155 2.87 175 2.88 154 2.89 203 2.90
                           183 2.90 180 2.91 150 2.92 198 2.96
 180  0.751  0.332  0.587- 152 2.70 177 2.75 200 2.77 156 2.80 151 2.82 204 2.82 199 2.83 184 2.87
                           203 2.89 179 2.91 176 2.92 155 2.94
 181  0.990  0.499  0.589- 204 2.74 177 2.78 201 2.80 156 2.80 160 2.85 157 2.88 208 2.88 205 2.88
                           182 2.89 184 2.90 185 2.91 153 2.99
 182  0.243  0.498  0.588- 205 2.75 201 2.77 178 2.78 186 2.82 154 2.83 206 2.87 202 2.88 157 2.89
                           181 2.89 183 2.92 153 2.95 158 3.01
 183  0.498  0.501  0.586- 184 2.75 159 2.80 187 2.81 158 2.81 155 2.81 207 2.82 154 2.82 179 2.90
                           182 2.92 206 2.95 202 2.98 203 2.99
 184  0.738  0.498  0.586- 159 2.67 155 2.74 183 2.75 156 2.77 160 2.79 188 2.85 180 2.87 207 2.87
                           204 2.89 181 2.90 203 2.93 208 3.00
 185  0.982  0.668  0.589- 212 2.64 188 2.73 208 2.75 189 2.76 209 2.78 205 2.84 181 2.91 160 2.93
                           164 2.94 157 2.97 161 3.08 186 3.16
 186  0.256  0.661  0.585- 157 2.79 158 2.81 187 2.81 205 2.81 182 2.82 190 2.84 162 2.87 210 2.90
                           161 2.92 209 2.99 206 3.05 185 3.16
 187  0.501  0.665  0.588- 211 2.75 188 2.78 191 2.78 183 2.81 186 2.81 207 2.83 210 2.83 159 2.90
                           163 2.92 158 3.00 206 3.02 162 3.06
 188  0.743  0.664  0.588- 211 2.72 185 2.73 208 2.76 187 2.78 159 2.81 184 2.85 212 2.89 207 2.90
                           164 2.90 160 2.91 192 2.92 163 2.96
 189  0.001  0.828  0.585- 185 2.76 209 2.77 161 2.80 165 2.80 213 2.82 190 2.88 192 2.91 169 2.92
                           212 2.92 164 2.98 168 2.99 216 3.00
 190  0.253  0.827  0.586- 191 2.68 214 2.76 209 2.82 162 2.83 186 2.84 166 2.85 189 2.88 161 2.89
                           170 2.90 210 2.92 213 2.92 165 2.95
 191  0.487  0.826  0.586- 190 2.68 187 2.78 163 2.81 162 2.83 214 2.84 166 2.88 215 2.91 210 2.91
                           167 2.92 171 2.94 211 2.96 192 2.99
 192  0.748  0.834  0.588- 216 2.72 172 2.78 215 2.78 211 2.87 163 2.90 189 2.91 212 2.91 188 2.92
                           167 2.94 164 2.97 191 2.99 168 3.03
 193  0.118  0.079  0.621- 174 2.77 222 2.78 194 2.82 196 2.87 217 2.87 213 2.88 173 2.88 221 2.89
                           170 2.90 218 2.90 169 2.91 197 3.06
 194  0.364  0.074  0.621- 222 2.75 174 2.76 219 2.79 171 2.80 170 2.81 193 2.82 218 2.82 223 2.84
                           195 2.87 214 2.90 198 2.93 175 3.01
 195  0.614  0.086  0.621- 223 2.67 224 2.71 176 2.79 175 2.81 219 2.82 171 2.83 220 2.85 194 2.87
                           196 2.91 215 2.94 199 2.97 172 3.10
 196  0.868  0.085  0.619- 176 2.70 173 2.73 224 2.78 200 2.80 169 2.82 193 2.87 216 2.89 172 2.90
                           195 2.91 221 2.92 220 3.02 217 3.08
 197  0.120  0.257  0.621- 201 2.73 225 2.79 200 2.80 177 2.81 198 2.85 226 2.88 174 2.92 222 2.94
                           178 2.94 221 2.94 173 2.96 193 3.06
 198  0.368  0.245  0.622- 223 2.75 222 2.77 202 2.79 174 2.82 197 2.85 199 2.85 194 2.93 175 2.94
                           178 2.96 179 2.96 227 2.97 226 3.02
 199  0.616  0.259  0.622- 203 2.63 227 2.78 228 2.78 224 2.80 179 2.81 180 2.83 223 2.84 198 2.85
                           195 2.97 200 2.98 176 3.00 175 3.00
 200  0.876  0.248  0.620- 177 2.75 173 2.75 180 2.77 196 2.80 197 2.80 224 2.83 176 2.85 221 2.86
                           228 2.91 225 2.91 204 2.95 199 2.98
 201  0.120  0.416  0.621- 197 2.73 182 2.77 181 2.80 177 2.81 229 2.81 230 2.90 204 2.91 202 2.91
                           226 2.94 225 2.95 178 2.95 205 2.97
 202  0.374  0.407  0.621- 178 2.78 198 2.79 179 2.80 203 2.82 206 2.86 182 2.88 201 2.91 227 2.94
                           231 2.94 183 2.98 226 3.00 230 3.09
 203  0.620  0.412  0.623- 199 2.63 207 2.81 202 2.82 204 2.82 228 2.82 231 2.84 232 2.88 180 2.89
                           227 2.89 179 2.90 184 2.93 183 2.99
 204  0.866  0.419  0.622- 181 2.74 232 2.78 177 2.81 203 2.82 180 2.82 228 2.82 229 2.84 208 2.89
                           184 2.89 201 2.91 200 2.95 225 3.01
 205  0.131  0.588  0.620- 182 2.75 206 2.79 234 2.79 209 2.79 186 2.81 185 2.84 233 2.85 181 2.88
                           229 2.92 201 2.97 230 3.02 208 3.07
 206  0.372  0.573  0.624- 231 2.73 207 2.77 205 2.79 235 2.81 202 2.86 182 2.87 230 2.87 210 2.88
                           234 2.88 183 2.95 187 3.02 186 3.05
 207  0.614  0.575  0.622- 206 2.77 231 2.79 203 2.81 183 2.82 187 2.83 208 2.86 184 2.87 232 2.87
                           211 2.88 188 2.90 235 2.92 236 3.00
 208  0.863  0.587  0.623- 185 2.75 188 2.76 212 2.77 232 2.82 236 2.83 229 2.83 233 2.84 207 2.86
                           181 2.88 204 2.89 184 3.00 205 3.07
 209  0.120  0.751  0.620- 213 2.76 189 2.77 185 2.78 212 2.78 233 2.79 205 2.79 190 2.82 234 2.85
                           210 2.89 237 2.95 186 2.99 238 3.00
 210  0.371  0.741  0.623- 234 2.72 235 2.74 239 2.77 214 2.83 187 2.83 206 2.88 209 2.89 211 2.90
                           186 2.90 191 2.91 190 2.92 238 2.93
 211  0.624  0.743  0.621- 188 2.72 187 2.75 239 2.79 236 2.83 192 2.87 207 2.88 210 2.90 212 2.90
                           235 2.92 215 2.95 191 2.96 240 2.98
 212  0.877  0.748  0.622- 185 2.64 233 2.71 237 2.74 208 2.77 209 2.78 188 2.89 211 2.90 236 2.91
                           216 2.91 192 2.91 189 2.92 240 2.94
 213  0.117  0.911  0.620- 209 2.76 189 2.82 214 2.83 193 2.88 170 2.89 237 2.90 217 2.91 216 2.91
                           190 2.92 169 2.92 218 2.97 238 3.05
 214  0.364  0.906  0.621- 190 2.76 239 2.76 210 2.83 213 2.83 191 2.84 238 2.88 194 2.90 219 2.90
                           215 2.91 170 2.91 218 2.93 171 2.93
 215  0.617  0.915  0.620- 171 2.75 239 2.78 192 2.78 219 2.81 216 2.82 214 2.91 191 2.91 220 2.91
                           195 2.94 211 2.95 172 2.96 240 3.00
 216  0.863  0.917  0.620- 192 2.72 215 2.82 172 2.84 169 2.86 196 2.89 237 2.90 212 2.91 213 2.91
                           240 2.92 220 2.95 217 2.97 189 3.00
 217  0.999  0.996  0.657- 237 2.82 218 2.83 193 2.87 221 2.90 213 2.91 216 2.97 220 3.05 196 3.08

 218  0.246  0.997  0.657- 222 2.78 194 2.82 217 2.83 219 2.86 238 2.90 193 2.90 214 2.93 213 2.97

 219  0.495  0.997  0.654- 220 2.73 194 2.79 215 2.81 195 2.82 223 2.82 218 2.86 239 2.87 214 2.90

 220  0.733  0.002  0.656- 219 2.73 224 2.79 195 2.85 215 2.91 240 2.91 216 2.95 196 3.02 217 3.05

 221  0.992  0.165  0.656- 225 2.76 224 2.86 200 2.86 193 2.89 217 2.90 196 2.92 222 2.93 197 2.94

 222  0.247  0.158  0.654- 194 2.75 198 2.77 218 2.78 193 2.78 223 2.84 221 2.93 197 2.94 226 2.99

 223  0.495  0.161  0.653- 195 2.67 198 2.75 219 2.82 222 2.84 194 2.84 199 2.84 224 2.84 227 2.88

 224  0.743  0.164  0.652- 195 2.71 196 2.78 220 2.79 199 2.80 200 2.83 223 2.84 228 2.86 221 2.86

 225  0.996  0.326  0.657- 221 2.76 226 2.78 197 2.79 228 2.80 200 2.91 201 2.95 204 3.01 229 3.03

 226  0.238  0.331  0.659- 225 2.78 230 2.80 197 2.88 201 2.94 227 2.98 222 2.99 202 3.00 198 3.02

 227  0.498  0.328  0.658- 199 2.78 231 2.88 223 2.88 203 2.89 228 2.91 202 2.94 198 2.97 226 2.98

 228  0.752  0.330  0.656- 199 2.78 225 2.80 203 2.82 204 2.82 224 2.86 232 2.87 227 2.91 200 2.91

 229  0.998  0.502  0.655- 230 2.75 201 2.81 208 2.83 204 2.84 232 2.85 233 2.89 205 2.92 225 3.03

 230  0.237  0.495  0.659- 229 2.75 226 2.80 206 2.87 201 2.90 231 2.97 205 3.02 234 3.03 202 3.09

 231  0.496  0.495  0.657- 206 2.73 207 2.79 203 2.84 227 2.88 232 2.91 235 2.92 202 2.94 230 2.97

 232  0.750  0.497  0.657- 204 2.78 208 2.82 229 2.85 228 2.87 207 2.87 203 2.88 231 2.91 236 2.95

 233  0.002  0.670  0.655- 212 2.71 234 2.73 209 2.79 237 2.79 208 2.84 205 2.85 229 2.89 236 2.98

 234  0.241  0.670  0.656- 210 2.72 238 2.72 233 2.73 205 2.79 209 2.85 235 2.85 206 2.88 230 3.03

 235  0.489  0.665  0.657- 210 2.74 206 2.81 239 2.84 234 2.85 236 2.90 207 2.92 231 2.92 211 2.92

 236  0.743  0.669  0.658- 240 2.83 211 2.83 208 2.83 235 2.90 212 2.91 232 2.95 233 2.98 207 3.00

 237  0.986  0.832  0.656- 212 2.74 240 2.75 233 2.79 217 2.82 213 2.90 216 2.90 209 2.95 238 3.02

 238  0.249  0.828  0.659- 234 2.72 214 2.88 239 2.88 218 2.90 210 2.93 209 3.00 237 3.02 213 3.05

 239  0.499  0.830  0.653- 214 2.76 210 2.77 215 2.78 211 2.79 235 2.84 240 2.85 219 2.87 238 2.88

 240  0.747  0.833  0.658- 237 2.75 236 2.83 239 2.85 220 2.91 216 2.92 212 2.94 211 2.98 215 3.00

 
  LATTYP: Found a simple orthorhombic cell.
 ALAT       =    11.4551298552
 B/A-ratio  =     1.5000000000
 C/A-ratio  =     5.0828755969
  
  Lattice vectors:
  
 A1 = (  11.4551298552,   0.0000000000,   0.0000000000)
 A2 = (   0.0000000000,  17.1826947828,   0.0000000000)
 A3 = (   0.0000000000,   0.0000000000,  58.2250000000)


Analysis of symmetry for initial positions (statically):
=====================================================================
 Subroutine PRICEL returns:
 Original cell was already a primitive cell.
 

 Routine SETGRP: Setting up the symmetry group for a 
 simple orthorhombic supercell.


 Subroutine GETGRP returns: Found  1 space group operations
 (whereof  1 operations were pure point group operations)
 out of a pool of  8 trial point group operations.


The static configuration has the point symmetry C_1 .


Analysis of symmetry for dynamics (positions and initial velocities):
=====================================================================
 Subroutine PRICEL returns:
 Original cell was already a primitive cell.
 

 Routine SETGRP: Setting up the symmetry group for a 
 simple orthorhombic supercell.


 Subroutine GETGRP returns: Found  1 space group operations
 (whereof  1 operations were pure point group operations)
 out of a pool of  8 trial point group operations.


The dynamic configuration has the point symmetry C_1 .


 Subroutine INISYM returns: Found  1 space group operations
 (whereof  1 operations are pure point group operations),
 and found     1 'primitive' translations

 
 
 KPOINTS: KPOINTS created by Atomic Simulation Env

Automatic generation of k-mesh.
Space group operators:
 irot       det(A)        alpha          n_x          n_y          n_z        tau_x        tau_y        tau_z
    1     1.000000     0.000000     1.000000     0.000000     0.000000     0.000000     0.000000     0.000000
 
 Subroutine IBZKPT returns following result:
 ===========================================
 
 Found      1 irreducible k-points:
 
 Following reciprocal coordinates:
            Coordinates               Weight
  0.000000  0.000000  0.000000      1.000000
 
 Following cartesian coordinates:
            Coordinates               Weight
  0.000000  0.000000  0.000000      1.000000
 


--------------------------------------------------------------------------------------------------------




 Dimension of arrays:
   k-points           NKPTS =      1   k-points in BZ     NKDIM =      1   number of bands    NBANDS=    496
   number of dos      NEDOS =    301   number of ions     NIONS =    240
   non local maximal  LDIM  =      4   non local SUM 2l+1 LMDIM =      8
   total plane-waves  NPLWV = 752640
   max r-space proj   IRMAX =      1   max aug-charges    IRDMAX=   2755
   dimension x,y,z NGX =    48 NGY =   70 NGZ =  224
   dimension x,y,z NGXF=    96 NGYF=  140 NGZF=  448
   support grid    NGXF=    96 NGYF=  140 NGZF=  448
   ions per type =             240
   NGX,Y,Z   is equivalent  to a cutoff of   6.97,  6.77,  6.40 a.u.
   NGXF,Y,Z  is equivalent  to a cutoff of  13.93, 13.55, 12.79 a.u.

 SYSTEM =  unknown system                          
 POSCAR =  Al                                      

 Startparameter for this run:
   NWRITE =      2    write-flag & timer
   PREC   = normal    normal or accurate (medium, high low for compatibility)
   ISTART =      1    job   : 0-new  1-cont  2-samecut
   ICHARG =      0    charge: 1-file 2-atom 10-const
   ISPIN  =      1    spin polarized calculation?
   LNONCOLLINEAR =      F non collinear calculations
   LSORBIT =      F    spin-orbit coupling
   INIWAV =      1    electr: 0-lowe 1-rand  2-diag
   LASPH  =      F    aspherical Exc in radial PAW
   METAGGA=      F    non-selfconsistent MetaGGA calc.

 Electronic Relaxation 1
   ENCUT  =  241.0 eV  17.71 Ry    4.21 a.u.  14.50 21.75 73.69*2*pi/ulx,y,z
   ENINI  =  241.0     initial cutoff
   ENAUG  =  291.1 eV  augmentation charge cutoff
   NELM   =     60;   NELMIN=  2; NELMDL=  0     # of ELM steps 
   EDIFF  = 0.1E-03   stopping-criterion for ELM
   LREAL  =      F    real-space projection
   NLSPLINE    = F    spline interpolate recip. space projectors
   LCOMPAT=      F    compatible to vasp.4.4
   GGA_COMPAT  = T    GGA compatible to vasp.4.4-vasp.4.6
   LMAXPAW     = -100 max onsite density
   LMAXMIX     =    2 max onsite mixed and CHGCAR
   VOSKOWN=      0    Vosko Wilk Nusair interpolation
   ROPT   =    0.00000
 Ionic relaxation
   EDIFFG = 0.1E-02   stopping-criterion for IOM
   NSW    =      0    number of steps for IOM
   NBLOCK =      1;   KBLOCK =      1    inner block; outer block 
   IBRION =     -1    ionic relax: 0-MD 1-quasi-New 2-CG
   NFREE  =      0    steps in history (QN), initial steepest desc. (CG)
   ISIF   =      2    stress and relaxation
   IWAVPR =     10    prediction:  0-non 1-charg 2-wave 3-comb
   ISYM   =      2    0-nonsym 1-usesym 2-fastsym
   LCORR  =      T    Harris-Foulkes like correction to forces

   POTIM  = 0.5000    time-step for ionic-motion
   TEIN   =    0.0    initial temperature
   TEBEG  =    0.0;   TEEND  =   0.0 temperature during run
   SMASS  =  -3.00    Nose mass-parameter (am)
   estimated Nose-frequenzy (Omega)   =  0.10E-29 period in steps =****** mass=  -0.300E-26a.u.
   SCALEE = 1.0000    scale energy and forces
   NPACO  =    256;   APACO  = 16.0  distance and # of slots for P.C.
   PSTRESS=    0.0 pullay stress

  Mass of Ions in am
   POMASS =  26.98
  Ionic Valenz
   ZVAL   =   3.00
  Atomic Wigner-Seitz radii
   RWIGS  =  -1.00
  virtual crystal weights 
   VCA    =   1.00
   NELECT =     720.0000    total number of electrons
   NUPDOWN=      -1.0000    fix difference up-down

 DOS related values:
   EMIN   =  10.00;   EMAX   =-10.00  energy-range for DOS
   EFERMI =   0.00
   ISMEAR =     1;   SIGMA  =   0.20  broadening in eV -4-tet -1-fermi 0-gaus

 Electronic relaxation 2 (details)
   IALGO  =     38    algorithm
   LDIAG  =      T    sub-space diagonalisation (order eigenvalues)
   LSUBROT=      F    optimize rotation matrix (better conditioning)
   TURBO    =      0    0=normal 1=particle mesh
   IRESTART =      0    0=no restart 2=restart with 2 vectors
   NREBOOT  =      0    no. of reboots
   NMIN     =      0    reboot dimension
   EREF     =   0.00    reference energy to select bands
   IMIX   =      4    mixing-type and parameters
     AMIX     =   0.40;   BMIX     =  1.00
     AMIX_MAG =   1.60;   BMIX_MAG =  1.00
     AMIN     =   0.10
     WC   =   100.;   INIMIX=   1;  MIXPRE=   1;  MAXMIX= -45

 Intra band minimization:
   WEIMIN = 0.0000     energy-eigenvalue tresh-hold
   EBREAK =  0.50E-07  absolut break condition
   DEPER  =   0.30     relativ break condition  

   TIME   =   0.40     timestep for ELM

  volume/ion in A,a.u.               =      47.75       322.24
  Fermi-wavevector in a.u.,A,eV,Ry     =   0.650807  1.229846  5.762740  0.423549
  Thomas-Fermi vector in A             =   1.720204
 
 Write flags
   LWAVE        =      T    write WAVECAR
   LDOWNSAMPLE  =      F    k-point downsampling of WAVECAR
   LCHARG       =      T    write CHGCAR
   LVTOT        =      F    write LOCPOT, total local potential
   LVHAR        =      F    write LOCPOT, Hartree potential only
   LELF         =      F    write electronic localiz. function (ELF)
   LORBIT       =      0    0 simple, 1 ext, 2 COOP (PROOUT), +10 PAW based schemes


 Dipole corrections
   LMONO  =      F    monopole corrections only (constant potential shift)
   LDIPOL =      F    correct potential (dipole corrections)
   IDIPOL =      0    1-x, 2-y, 3-z, 4-all directions 
   EPSILON=  1.0000000 bulk dielectric constant

 Exchange correlation treatment:
   GGA     =    --    GGA type
   LEXCH   =     2    internal setting for exchange type
   VOSKOWN=      0    Vosko Wilk Nusair interpolation
   LHFCALC =     F    Hartree Fock is set to
   LHFONE  =     F    Hartree Fock one center treatment
   AEXX    =    0.0000 exact exchange contribution

 Linear response parameters
   LEPSILON=     F    determine dielectric tensor
   LRPA    =     F    only Hartree local field effects (RPA)
   LNABLA  =     F    use nabla operator in PAW spheres
   LVEL    =     F    velocity operator in full k-point grid
   LINTERFAST=   F  fast interpolation
   KINTER  =     0    interpolate to denser k-point grid
   CSHIFT  =0.1000    complex shift for real part using Kramers Kronig
   OMEGAMAX=  -1.0    maximum frequency
   DEG_THRESHOLD= 0.2000000E-02 threshold for treating states as degnerate
   RTIME   =   -0.100 relaxation time in fs
  (WPLASMAI=    0.000 imaginary part of plasma frequency in eV, 0.658/RTIME)
   DFIELD  = 0.0000000 0.0000000 0.0000000 field for delta impulse in time
 
 Orbital magnetization related:
   ORBITALMAG=     F  switch on orbital magnetization
   LCHIMAG   =     F  perturbation theory with respect to B field
   DQ        =  0.001000  dq finite difference perturbation B field
   LLRAUG    =     F  two centre corrections for induced B field


 ----------------------------------------------------------------------------- 
|                                                                             |
|           W    W    AA    RRRRR   N    N  II  N    N   GGGG   !!!           |
|           W    W   A  A   R    R  NN   N  II  NN   N  G    G  !!!           |
|           W    W  A    A  R    R  N N  N  II  N N  N  G       !!!           |
|           W WW W  AAAAAA  RRRRR   N  N N  II  N  N N  G  GGG   !            |
|           WW  WW  A    A  R   R   N   NN  II  N   NN  G    G                |
|           W    W  A    A  R    R  N    N  II  N    N   GGGG   !!!           |
|                                                                             |
|      One of the lattice vectors is very long (>50 A), but AMIN is rather    |
|      large. This can spoil convergence since charge sloshing might occur    |
|      along the long lattice vector. If problems with convergence are        |
|      observed, try to decrease AMIN to a smaller values (e.g. 0.01).        |
|      Note: this warning only applies if the selfconsistency cycle is used.  |
|                                                                             |
 ----------------------------------------------------------------------------- 



--------------------------------------------------------------------------------------------------------


 Static calculation
 charge density and potential will be updated during run
 non-spin polarized calculation
 Variant of blocked Davidson
 Davidson routine will perform the subspace rotation
 perform sub-space diagonalisation
    after iterative eigenvector-optimisation
 modified Broyden-mixing scheme, WC =      100.0
 initial mixing is a Kerker type mixing with AMIX =  0.4000 and BMIX =      1.0000
 Hartree-type preconditioning will be used
 using additional bands          136
 reciprocal scheme for non local part
 use partial core corrections
 calculate Harris-corrections to forces 
   (improved forces if not selfconsistent)
 use of overlap-Matrix (Vanderbilt PP)
 Methfessel and Paxton  Order N= 1 SIGMA  =   0.20


--------------------------------------------------------------------------------------------------------


  energy-cutoff  :      240.96
  volume of cell :    11460.43
      direct lattice vectors                 reciprocal lattice vectors
    11.455129855  0.000000000  0.000000000     0.087297133  0.000000000  0.000000000
     0.000000000 17.182694783  0.000000000     0.000000000  0.058198089  0.000000000
     0.000000000  0.000000000 58.225000000     0.000000000  0.000000000  0.017174753

  length of vectors
    11.455129855 17.182694783 58.225000000     0.087297133  0.058198089  0.017174753


 
 old parameters found on file WAVECAR:
  energy-cutoff  :      240.96
  volume of cell :    11460.43
      direct lattice vectors                 reciprocal lattice vectors
    11.455129855  0.000000000  0.000000000     0.087297133  0.000000000  0.000000000
     0.000000000 17.182694783  0.000000000     0.000000000  0.058198089  0.000000000
     0.000000000  0.000000000 58.225000000     0.000000000  0.000000000  0.017174753

  length of vectors

 
 k-points in units of 2pi/SCALE and weight: KPOINTS created by Atomic Simulation Env
   0.00000000  0.00000000  0.00000000       1.000
 
 k-points in reciprocal lattice and weights: KPOINTS created by Atomic Simulation Env
   0.00000000  0.00000000  0.00000000       1.000
 
 position of ions in fractional coordinates (direct lattice) 
   0.11434577  0.07504146  0.34494810
   0.35836430  0.08171529  0.34010930
   0.61498723  0.08293679  0.34643058
   0.86713266  0.08465698  0.34114950
   0.11028207  0.25117364  0.34321668
   0.37418082  0.25202437  0.34434707
   0.61486480  0.24897553  0.34336473
   0.87239116  0.25249097  0.34510661
   0.11441737  0.42207930  0.34251722
   0.36798048  0.41627038  0.34193385
   0.60981803  0.41255599  0.34298500
   0.86258534  0.41421591  0.34291291
   0.11579782  0.58987217  0.34241923
   0.35326606  0.58228167  0.34240624
   0.61135759  0.58736464  0.34197994
   0.85841324  0.58808394  0.34317463
   0.11473034  0.75284008  0.34323061
   0.35574316  0.74144235  0.34379351
   0.61686728  0.74619622  0.34298313
   0.85739336  0.75482669  0.34244535
   0.11018339  0.90955403  0.34276074
   0.36571094  0.90831643  0.34430388
   0.61670082  0.91346554  0.34286791
   0.86092750  0.92007106  0.34261957
   0.99911516  0.99857426  0.37978935
   0.25253800  0.00008051  0.37872852
   0.48809684  0.99794845  0.37930064
   0.74837002  0.00009445  0.37977879
   0.99350991  0.16294071  0.37872052
   0.24926801  0.16980061  0.37675011
   0.49321664  0.16538679  0.37907057
   0.74585826  0.16616689  0.37884809
   0.00101398  0.32854136  0.38009475
   0.24719289  0.33646544  0.37629010
   0.49745997  0.33922110  0.38001576
   0.73980798  0.33440166  0.37873708
   0.99444011  0.49239183  0.37961722
   0.25427439  0.50063335  0.37790041
   0.48605567  0.50147708  0.37636322
   0.74439907  0.50330654  0.37765146
   0.99159600  0.65990349  0.37796313
   0.24324135  0.66411389  0.37892051
   0.49073740  0.66261471  0.37623218
   0.74299574  0.66752240  0.37768263
   0.99003849  0.83208601  0.37935482
   0.24232427  0.83207866  0.37842145
   0.48976065  0.82870195  0.37833726
   0.73277764  0.83466857  0.37688858
   0.11272448  0.08247620  0.41237077
   0.36328844  0.08178153  0.41192724
   0.61365756  0.08953547  0.41179586
   0.86840682  0.08252415  0.41429646
   0.12250068  0.24660362  0.41258429
   0.37133153  0.25320038  0.41160687
   0.62578539  0.25223821  0.41223122
   0.85969776  0.24915759  0.41253981
   0.12635023  0.41201631  0.41226193
   0.35944845  0.41479985  0.41304861
   0.62064619  0.42084191  0.41162300
   0.86775809  0.41676075  0.41194617
   0.11569247  0.57689910  0.41176972
   0.37461611  0.58271732  0.41342385
   0.61631234  0.58062532  0.41110497
   0.86629907  0.58042973  0.41247260
   0.11703770  0.74989974  0.41291725
   0.37147094  0.74463630  0.41438869
   0.62454136  0.74830079  0.41335489
   0.87201853  0.74190892  0.41135776
   0.12184218  0.91358467  0.41183982
   0.37964080  0.91042852  0.41296457
   0.61815233  0.91659258  0.41246967
   0.87163312  0.91068606  0.41465837
   0.00077228  0.99951170  0.44994434
   0.24219447  0.99940144  0.44516808
   0.49502585  0.99971472  0.44834571
   0.73410597  0.00393065  0.44794121
   0.99494310  0.16879489  0.44682219
   0.25356516  0.17253592  0.44720090
   0.50658973  0.16705294  0.44901009
   0.74545764  0.17286877  0.44662099
   0.99329098  0.33376958  0.44602132
   0.24084456  0.33854310  0.44771864
   0.49427010  0.33015730  0.44700882
   0.74283414  0.33802298  0.44656282
   0.99575544  0.50109741  0.44629210
   0.24907286  0.49865785  0.44569392
   0.50023623  0.49915612  0.44558444
   0.74882499  0.50180367  0.44729533
   0.00120327  0.66527835  0.44673974
   0.25027456  0.66257475  0.44798181
   0.50484865  0.66307540  0.44794970
   0.76206707  0.66590786  0.44833651
   0.99589006  0.83165119  0.44756411
   0.24642475  0.83128448  0.44725481
   0.49682477  0.82858276  0.44874357
   0.75099033  0.83290208  0.44693792
   0.12296685  0.09170459  0.48418540
   0.37505052  0.08875534  0.48213672
   0.63273646  0.07851092  0.48403675
   0.87032105  0.08868681  0.48211383
   0.13660370  0.25585780  0.48271488
   0.37109398  0.25149750  0.48338004
   0.62419911  0.25349554  0.48415192
   0.86307467  0.26168552  0.48430993
   0.12273780  0.41322571  0.48218774
   0.37408032  0.42349371  0.48157926
   0.63016257  0.42089012  0.48129001
   0.87790088  0.41764236  0.48309228
   0.11721365  0.57543418  0.48290626
   0.37336020  0.58436044  0.48240053
   0.60949972  0.58870934  0.48152154
   0.86420428  0.58731954  0.48488471
   0.12401614  0.74467814  0.48121691
   0.37133578  0.75050050  0.48234983
   0.62401853  0.75093452  0.48275105
   0.87597545  0.75666104  0.48399408
   0.13398712  0.91475988  0.48272983
   0.36791411  0.91942388  0.48344209
   0.62040265  0.91530411  0.48235401
   0.87235740  0.91715388  0.48305346
   0.00027186  0.99820583  0.51663794
   0.24306969  0.99811791  0.51811948
   0.49378022  0.00103637  0.51635259
   0.74362324  0.99626295  0.51715957
   0.98125751  0.16305480  0.51525370
   0.23662574  0.17171048  0.51695916
   0.49638658  0.16331650  0.51514356
   0.73632808  0.17162743  0.51881260
   0.98664776  0.33403756  0.51859167
   0.24404419  0.33500845  0.51765317
   0.48705747  0.33529801  0.51806501
   0.74285766  0.33646341  0.51907783
   0.98224946  0.49731693  0.51719472
   0.23444749  0.50046140  0.51828187
   0.49354204  0.49922636  0.51771473
   0.73165236  0.50045296  0.51670034
   0.99468762  0.66524514  0.51741047
   0.23945217  0.66238022  0.51511575
   0.49343755  0.66485998  0.51622436
   0.72907255  0.66607296  0.51723668
   0.99900281  0.83153186  0.51654471
   0.24360288  0.82575143  0.51612173
   0.48807258  0.83640143  0.51686385
   0.74176658  0.83345820  0.51698466
   0.10811052  0.07947358  0.55177853
   0.36328101  0.08528722  0.55165037
   0.61407827  0.08448760  0.55075539
   0.87096347  0.08565056  0.55113890
   0.11490748  0.24781199  0.55115129
   0.36291284  0.24469402  0.55178873
   0.62630917  0.25015053  0.55312726
   0.85557185  0.25458819  0.55253791
   0.11685868  0.41137163  0.55226394
   0.36314396  0.42048879  0.55265143
   0.62276420  0.41895842  0.55184367
   0.87215998  0.41820216  0.55418984
   0.11433370  0.58254203  0.55372327
   0.37479302  0.57860652  0.55060667
   0.63141743  0.58131239  0.55305762
   0.86869977  0.57806504  0.55299513
   0.12200300  0.74766038  0.55074730
   0.36915214  0.74975663  0.54964423
   0.62101884  0.75210592  0.55201649
   0.86008594  0.74206254  0.55058865
   0.11758318  0.91644006  0.55208809
   0.36655825  0.91526832  0.55124206
   0.61586494  0.91772183  0.55217147
   0.87470041  0.91915655  0.54964189
   0.98874688  0.99748020  0.58525879
   0.24549278  0.99499688  0.58561998
   0.49536375  0.99687946  0.58729505
   0.75046411  0.99461592  0.58353249
   0.99263814  0.16428167  0.58630594
   0.24394104  0.15916055  0.58811494
   0.49835159  0.16450193  0.58514983
   0.74175058  0.16209084  0.58678819
   0.99057010  0.33731749  0.58757544
   0.25409960  0.33684541  0.58495005
   0.49638658  0.33234489  0.58582566
   0.75053254  0.33184155  0.58725012
   0.99009279  0.49908052  0.58890988
   0.24276688  0.49784762  0.58841649
   0.49759944  0.50140583  0.58557696
   0.73757391  0.49848983  0.58587031
   0.98150746  0.66831462  0.58937706
   0.25610866  0.66149245  0.58503954
   0.50095743  0.66454806  0.58788633
   0.74349176  0.66382472  0.58836885
   0.00140734  0.82756464  0.58539187
   0.25310272  0.82652489  0.58615281
   0.48691205  0.82618327  0.58591780
   0.74788289  0.83372847  0.58767759
   0.11810649  0.07861249  0.62094689
   0.36389333  0.07424254  0.62075462
   0.61426967  0.08574175  0.62076148
   0.86820500  0.08464192  0.61866987
   0.11996366  0.25691428  0.62105111
   0.36810308  0.24481823  0.62155157
   0.61641198  0.25880574  0.62186892
   0.87588029  0.24750779  0.61951274
   0.11974385  0.41581059  0.62141980
   0.37387334  0.40730726  0.62095995
   0.61980423  0.41200489  0.62252625
   0.86581628  0.41894204  0.62152203
   0.13050949  0.58840602  0.62044957
   0.37187026  0.57349371  0.62434459
   0.61353402  0.57547469  0.62225567
   0.86293010  0.58684790  0.62277610
   0.11975103  0.75082519  0.62006847
   0.37144288  0.74116203  0.62265141
   0.62421853  0.74303655  0.62119141
   0.87748845  0.74755990  0.62239889
   0.11694102  0.91121504  0.62040523
   0.36367124  0.90556704  0.62110696
   0.61686299  0.91454334  0.61997053
   0.86263461  0.91664351  0.62040227
   0.99911159  0.99615156  0.65681107
   0.24578054  0.99703077  0.65669666
   0.49484570  0.99699847  0.65403042
   0.73286039  0.00247025  0.65611257
   0.99218699  0.16507341  0.65556672
   0.24743378  0.15824978  0.65387277
   0.49508479  0.16131184  0.65314538
   0.74298774  0.16416180  0.65220447
   0.99581852  0.32583217  0.65701431
   0.23786489  0.33139889  0.65876572
   0.49838271  0.32795742  0.65830556
   0.75163177  0.33000610  0.65558398
   0.99838800  0.50186468  0.65479182
   0.23740695  0.49453097  0.65890587
   0.49609746  0.49536851  0.65697554
   0.74998281  0.49722412  0.65664504
   0.00246857  0.67001553  0.65471706
   0.24097351  0.67049074  0.65552615
   0.48921964  0.66520513  0.65700994
   0.74262418  0.66860987  0.65772425
   0.98628585  0.83221340  0.65605517
   0.24909146  0.82830517  0.65868225
   0.49914493  0.83015516  0.65339200
   0.74678978  0.83317333  0.65774678
 
 position of ions in cartesian coordinates  (Angst):
   1.30984564  1.28941442 20.08460331
   4.10510955  1.40408880 19.80286403
   7.04475856  1.42507759 20.17092029
   9.93311727  1.45463497 19.86342993
   1.26329542  4.31584001 19.98379101
   4.28628983  4.33045791 20.04960841
   7.04335614  4.27807060 19.99241153
   9.99335403  4.33847523 20.09383243
   1.31066583  7.25245976 19.94306520
   4.21526419  7.15264687 19.90909815
   6.98554473  7.08882367 19.97030163
   9.88102712  7.11734560 19.96610422
   1.32647903 10.13559354 19.93735951
   4.04670854 10.00516818 19.93660344
   7.00318059 10.09250728 19.91178206
   9.83323517 10.10486692 19.98134297
   1.31425091 12.93582124 19.98460205
   4.07508412 12.73997755 20.01737706
   7.06629477 12.82166185 19.97019270
   9.82155223 12.96995668 19.93888023
   1.26216499 15.62858925 19.95724395
   4.18926629 15.60732397 20.04709361
   7.06438803 15.69579950 19.96348385
   9.86203628 15.80930012 19.94902470
  11.44499393 17.15819668 22.11323483
   2.89285561  0.00138339 22.05146822
   5.59121269 17.14744368 22.08477958
   8.57267576  0.00162289 22.11261995
  11.38078500  2.79976044 22.05100204
   2.85539737  2.91763210 21.93627499
   5.64986070  2.84179073 22.07138386
   8.54390324  2.85519499 22.05843017
   0.01161525  5.64522597 22.13101656
   2.83162662  5.78138292 21.90949135
   5.69846851  5.82873254 22.12641785
   8.47459650  5.74592161 22.05196656
  11.39144056  8.46061852 22.10321273
   2.91274613  8.60223011 22.00325162
   5.56783086  8.61672760 21.91374834
   8.52718796  8.64816264 21.98875601
  11.35886096 11.33892017 22.00690342
   2.78636127 11.41126634 22.06264643
   5.62146068 11.38550629 21.90611869
   8.51111265 11.46983364 21.99057121
  11.34101945 14.29747990 22.08793412
   2.77585603 14.29735373 22.03358869
   5.61027187 14.23933273 22.02868711
   8.39406297 14.34185524 21.94433768
   1.29127351  1.41716337 24.01028837
   4.16151627  1.40522711 23.98446346
   7.02952707  1.53846058 23.97681400
   9.94771287  1.41798722 24.12241122
   1.40326115  4.23731480 24.02272010
   4.25365085  4.35066479 23.96580998
   7.16845289  4.33413217 24.00216280
   9.84794948  4.28119889 24.02013069
   1.44735828  7.07955043 24.00395106
   4.11752872  7.12737920 24.04975560
   7.10958273  7.23119814 23.96674897
   9.94028162  7.16107279 23.98556583
   1.32527227  9.91268108 23.97529208
   4.29127613 10.01265386 24.07160357
   7.05993786  9.97670767 23.93658683
   9.92356834  9.97334697 24.01621740
   1.34068204 12.88529831 24.04210684
   4.25524790 12.79485824 24.12778139
   7.15420234 12.85782405 24.06758867
   9.98908545 12.74799454 23.95130581
   1.39571800 15.69784663 23.97937357
   4.34883467 15.64361536 24.04486230
   7.08101523 15.74953050 24.01604645
   9.98467054 15.64804064 24.14348354
   0.00884658 17.17430453 26.19800941
   2.77436908 17.17240995 25.91991146
   5.67058538 17.17779290 26.10492901
   8.40927924  0.06753909 26.08137683
  11.39720236  2.90035115 26.01622180
   2.90462178  2.96463202 26.03827242
   5.80305118  2.87041975 26.14361230
   8.53931412  2.97035133 26.00450703
  11.37827721  5.73506080 25.96959148
   2.75890571  5.81708282 26.06841766
   5.66192823  5.67299204 26.02708850
   8.50926150  5.80814563 26.00112031
  11.40650786  8.61020388 25.98535756
   2.85316199  8.56828571 25.95052834
   5.73027094  8.57684731 25.94415394
   8.57788746  8.62233923 26.04377031
   0.01378362 11.43127478 26.01142130
   2.86692759 11.38481973 26.08374086
   5.78310684 11.39342226 26.08187139
   8.72957720 11.44209143 26.10439353
  11.40804991 14.29000860 26.05942006
   2.82282752 14.28370742 26.04141152
   5.69119222 14.23728472 26.12809431
   8.60269173 14.31150229 26.02296056
   1.40860118  1.57573197 28.19169503
   4.29625245  1.52505590 28.07241035
   7.24807836  1.34902914 28.18303958
   9.96964067  1.52387846 28.07107764
   1.56481309  4.39632647 28.10607402
   4.25092976  4.32140478 28.14480311
   7.15028189  4.35573644 28.18974574
   9.88663241  4.49646237 28.19894593
   1.40597746  7.10033130 28.07538098
   4.28513870  7.27676314 28.03995238
   7.21859410  7.23202654 28.02311091
  10.05646856  7.17622122 28.12804790
   1.34269760  9.88750987 28.11721725
   4.27688952 10.04088712 28.08777103
   6.98189842 10.11561299 28.03659148
   9.89957227 10.09173243 28.23241226
   1.42062104 12.79557713 28.01885469
   4.25369959 12.89562109 28.08481869
   7.14821329 12.90307862 28.10818011
  10.03441252 13.00147563 28.18055512
   1.53483983 15.71803981 28.10694452
   4.21450393 15.79817990 28.14841556
   7.10679292 15.72739112 28.08506227
   9.99296724 15.75917525 28.12578796
   0.00311419 17.15186616 30.08124411
   2.78439484 17.15035534 30.16750691
   5.65631653  0.01780756 30.06462953
   8.51830076 17.11848217 30.11161613
  11.24043216  2.80172088 30.00064690
   2.71057860  2.95044870 30.09994718
   5.68617269  2.80621753 29.99423367
   8.43473379  2.94902169 30.20786391
  11.30217821  5.73966551 30.19499979
   2.79555791  5.75634794 30.14035567
   5.57930658  5.76132331 30.16433546
   8.50953095  5.78134814 30.22330656
  11.25179510  8.54524495 30.11366251
   2.68562644  8.59927544 30.17696168
   5.65358815  8.57805422 30.14394014
   8.38117284  8.59913051 30.08487718
  11.39427582 11.43070427 30.12622469
   2.74295566 11.38147713 29.99261470
   5.65239123 11.42408616 30.05716342
   8.35162069 11.44492842 30.11610550
  11.44370693 14.28795816 30.07581590
   2.79050258 14.18863480 30.05118794
   5.59093480 14.37163052 30.09439766
   8.49703247 14.32105785 30.10143202
   1.23842009  1.36557029 32.12730516
   4.16143118  1.46546425 32.11984299
   7.03434633  1.45172465 32.06773248
   9.97699961  1.47170748 32.09006263
   1.31628014  4.25807774 32.09078377
   4.15721374  4.20450266 32.12789891
   7.17445284  4.29826013 32.20583480
   9.80068662  4.37451125 32.17151967
   1.33863135  7.06847321 32.15556773
   4.15986118  7.22513054 32.17812935
   7.13384479  7.19883474 32.13109780
   9.99070584  7.18584014 32.26770367
   1.30970734 10.00964196 32.24053720
   4.29330271  9.94201928 32.05907318
   7.23296860  9.98851332 32.20177965
   9.95106864  9.93271518 32.19814163
   1.39756024 12.84682015 32.06726160
   4.22868573 12.88283936 32.00303514
   7.11385150 12.92320645 32.14115995
   9.85239617 12.75063408 32.05802406
   1.34693064 15.74690988 32.14532881
   4.19897237 15.72677622 32.09606872
   7.05481285 15.76893411 32.15018359
  10.01980676 15.79358645 32.00289928
  11.32622392 17.13939791 34.07669310
   2.81215169 17.09672764 34.09772335
   5.67445608 17.12907549 34.19525449
   8.59666380 17.09018181 33.97617907
  11.37079875  2.82280180 34.13766313
   2.79437630  2.73480712 34.24299242
   5.70868215  2.82658640 34.07034899
   8.49684919  2.78515736 34.16574241
  11.34710909  5.79602343 34.21157972
   2.91074397  5.78791178 34.05871676
   5.68617272  5.71058079 34.10969877
   8.59744767  5.70193206 34.19263850
  11.34164146  8.57554817 34.28927785
   2.78092611  8.55436368 34.26054988
   5.70006621  8.61550336 34.09521858
   8.44900490  8.56539864 34.11229905
  11.24329545 11.48344606 34.31647921
   2.93375795 11.36622295 34.06392708
   5.73853240 11.41872654 34.22968164
   8.51679471 11.40629762 34.25777621
   0.01612127 14.21979064 34.08444149
   2.89932455 14.20192491 34.12874723
   5.57764076 14.19605488 34.11506370
   8.56709563 14.32570175 34.21752781
   1.35292516  1.35077445 36.15463245
   4.16844532  1.27568689 36.14343766
   7.03653880  1.47327434 36.14383717
   9.94540106  1.45437625 36.02205315
   1.37419927  4.41447973 36.16070109
   4.21666855  4.20663699 36.18984029
   7.06107931  4.44698009 36.20831793
  10.03332250  4.25285077 36.07112941
   1.37168134  7.14474641 36.18216808
   4.28276764  6.99863630 36.15539294
   7.09993792  7.07935426 36.24659068
   9.91803797  7.19855319 36.18811992
   1.49500316 10.11040106 36.12567597
   4.25982207  9.85416743 36.35246393
   7.02811186  9.88820592 36.23083634
   9.88497634 10.08362840 36.26113822
   1.37176362 12.90120003 36.10348646
   4.25492643 12.73516102 36.25387835
   7.15050434 12.76737023 36.16887013
  10.05174411 12.84509352 36.23917515
   1.33957456 15.65712988 36.12309451
   4.16590132 15.56008208 36.16395261
   7.06624566 15.71431916 36.09778414
   9.88159150 15.75040569 36.12292190
  11.44495297 17.11656826 38.24282447
   2.81544800 17.13167536 38.23616328
   5.66852175 17.13112042 38.08092130
   8.39501096  0.04244562 38.20215410
  11.36563080  2.83640597 38.17037255
   2.83438604  2.71915772 38.07174188
   5.67126056  2.77177213 38.02938976
   8.51102099  2.82074213 37.97460552
  11.40723047  5.59867481 38.25465793
   2.72477320  5.69432599 38.35663391
   5.70903863  5.63519219 38.32984129
   8.61003955  5.67039418 38.17137733
  11.43666423  8.62338764 38.12525394
   2.71952747  8.49737473 38.36479418
   5.68286078  8.51176585 38.25240090
   8.59115049  8.54365023 38.23315725
   0.02827779 11.51267227 38.12090070
   2.76038283 11.52083769 38.16801034
   5.60407452 11.43001676 38.25440350
   8.50685645 11.48851933 38.29599474
  11.29803250 14.29966884 38.19881230
   2.85337497 14.23251495 38.35177388
   5.71776998 14.26430281 38.04374948
   8.55457395 14.31616297 38.29730603
 


--------------------------------------------------------------------------------------------------------


 k-point  1 :   0.0000 0.0000 0.0000  plane waves:   97433

 maximum and minimum number of plane-waves per node :     24361    24356

 maximum number of plane-waves:     97433
 maximum index in each direction: 
   IXMAX=   14   IYMAX=   21   IZMAX=   73
   IXMIN=  -14   IYMIN=  -21   IZMIN=  -73


 parallel 3D FFT for wavefunctions:
    minimum data exchange during FFTs selected (reduces bandwidth)
 parallel 3D FFT for charge:
    minimum data exchange during FFTs selected (reduces bandwidth)


 total amount of memory used by VASP MPI-rank0   168083. kBytes
=======================================================================

   base      :      30000. kBytes
   nonl-proj :      95132. kBytes
   fftplans  :      14387. kBytes
   grid      :      16056. kBytes
   one-center:        184. kBytes
   wavefun   :      12324. kBytes
 
     INWAV:  cpu time    2.2787: real time    2.2790
 Broyden mixing: mesh for mixing (old mesh)
   NGX = 29   NGY = 43   NGZ =147
  (NGX  = 96   NGY  =140   NGZ  =448)
  gives a total of 183309 points

 charge density for first step will be calculated from the start-wavefunctions


--------------------------------------------------------------------------------------------------------


 Maximum index for augmentation-charges          216 (set IRDMAX)


--------------------------------------------------------------------------------------------------------


 initial charge from wavefunction
 First call to EWALD:  gamma=   0.079
 Maximum number of real-space cells 5x 3x 1
 Maximum number of reciprocal cells 2x 2x 6

    FEWALD:  cpu time    0.0093: real time    0.0093


--------------------------------------- Iteration      1(   1)  ---------------------------------------


    POTLOK:  cpu time    0.0608: real time    0.0771
    SETDIJ:  cpu time    0.0055: real time    0.0055
     EDDAV:  cpu time   16.7502: real time   16.7460
       DOS:  cpu time    0.0013: real time    0.0013
    CHARGE:  cpu time    0.2570: real time    0.2564
    MIXING:  cpu time    0.0045: real time    0.0045
    --------------------------------------------
      LOOP:  cpu time   17.0793: real time   17.0908

 eigenvalue-minimisations  :  1120
 total energy-change (2. order) :-0.1072794E+04  (-0.7466669E+02)
 number of electron     720.0000002 magnetization 
 augmentation part      -11.6712689 magnetization 

 Broyden mixing:
  rms(total) = 0.31229E+01    rms(broyden)= 0.31229E+01
  rms(prec ) = 0.36653E+01
  weight for this iteration     100.00

 Free energy of the ion-electron system (eV)
  ---------------------------------------------------
  alpha Z        PSCENC =       -17.01491454
  Ewald energy   TEWEN  =    477201.51957219
  -Hartree energ DENC   =   -489724.05049108
  -exchange      EXHF   =         0.00000000
  -V(xc)+E(xc)   XCENC  =     -6101.57067815
  PAW double counting   =     44051.96029423   -36605.43161404
  entropy T*S    EENTRO =        -0.03651993
  eigenvalues    EBANDS =     -2787.74479035
  atomic energy  EATOM  =     12909.57480638
  Solvation  Ediel_sol  =         0.00000000
  ---------------------------------------------------
  free energy    TOTEN  =     -1072.79433529 eV

  energy without entropy =    -1072.75781536  energy(sigma->0) =    -1072.78216198


--------------------------------------------------------------------------------------------------------




--------------------------------------- Iteration      1(   2)  ---------------------------------------


    POTLOK:  cpu time    0.0616: real time    0.0630
    SETDIJ:  cpu time    0.0054: real time    0.0054
     EDDAV:  cpu time   21.6453: real time   21.6395
       DOS:  cpu time    0.0006: real time    0.0006
    CHARGE:  cpu time    0.2587: real time    0.2578
    MIXING:  cpu time    0.0047: real time    0.0047
    --------------------------------------------
      LOOP:  cpu time   21.9763: real time   21.9711

 eigenvalue-minimisations  :  1504
 total energy-change (2. order) :-0.3047309E+03  (-0.8260393E+02)
 number of electron     720.0000004 magnetization 
 augmentation part      -11.8434937 magnetization 

 Broyden mixing:
  rms(total) = 0.47778E+01    rms(broyden)= 0.47778E+01
  rms(prec ) = 0.12686E+02
  weight for this iteration     100.00

 eigenvalues of (default mixing * dielectric matrix)
  average eigenvalue GAMMA=   0.4369
  0.4369

 Free energy of the ion-electron system (eV)
  ---------------------------------------------------
  alpha Z        PSCENC =       -17.01491454
  Ewald energy   TEWEN  =    477201.51957219
  -Hartree energ DENC   =   -489419.04019284
  -exchange      EXHF   =         0.00000000
  -V(xc)+E(xc)   XCENC  =     -6101.94673164
  PAW double counting   =     44717.78754768   -37271.30388166
  entropy T*S    EENTRO =         0.10513729
  eigenvalues    EBANDS =     -3397.20657249
  atomic energy  EATOM  =     12909.57480638
  Solvation  Ediel_sol  =         0.00000000
  ---------------------------------------------------
  free energy    TOTEN  =     -1377.52522962 eV

  energy without entropy =    -1377.63036691  energy(sigma->0) =    -1377.56027539


--------------------------------------------------------------------------------------------------------




--------------------------------------- Iteration      1(   3)  ---------------------------------------


    POTLOK:  cpu time    0.0614: real time    0.0617
    SETDIJ:  cpu time    0.0055: real time    0.0054
     EDDAV:  cpu time   21.7700: real time   21.7628
       DOS:  cpu time    0.0006: real time    0.0006
    CHARGE:  cpu time    0.2578: real time    0.2569
    MIXING:  cpu time    0.0049: real time    0.0049
    --------------------------------------------
      LOOP:  cpu time   22.1002: real time   22.0923

 eigenvalue-minimisations  :  1520
 total energy-change (2. order) : 0.1496394E+03  (-0.3308511E+03)
 number of electron     720.0000008 magnetization 
 augmentation part      -12.1363120 magnetization 

 Broyden mixing:
  rms(total) = 0.38692E+01    rms(broyden)= 0.38692E+01
  rms(prec ) = 0.10057E+02
  weight for this iteration     100.00

 eigenvalues of (default mixing * dielectric matrix)
  average eigenvalue GAMMA=   0.4177
  0.7584  0.0769

 Free energy of the ion-electron system (eV)
  ---------------------------------------------------
  alpha Z        PSCENC =       -17.01491454
  Ewald energy   TEWEN  =    477201.51957219
  -Hartree energ DENC   =   -489197.04382943
  -exchange      EXHF   =         0.00000000
  -V(xc)+E(xc)   XCENC  =     -6102.17412538
  PAW double counting   =     44455.15228662   -37008.59161027
  entropy T*S    EENTRO =        -0.06678218
  eigenvalues    EBANDS =     -3469.24128202
  atomic energy  EATOM  =     12909.57480638
  Solvation  Ediel_sol  =         0.00000000
  ---------------------------------------------------
  free energy    TOTEN  =     -1227.88587864 eV

  energy without entropy =    -1227.81909645  energy(sigma->0) =    -1227.86361791


--------------------------------------------------------------------------------------------------------




--------------------------------------- Iteration      1(   4)  ---------------------------------------


    POTLOK:  cpu time    0.0602: real time    0.0608
    SETDIJ:  cpu time    0.0054: real time    0.0054
     EDDAV:  cpu time   20.4765: real time   20.4695
       DOS:  cpu time    0.0006: real time    0.0006
    CHARGE:  cpu time    0.2575: real time    0.2567
[...]
     11.38079      2.79976     22.05100        -0.043929      0.128709      0.006379
      2.85540      2.91763     21.93627        -0.278304     -0.182550      0.206480
      5.64986      2.84179     22.07138        -0.142978      0.245885     -0.101030
      8.54390      2.85519     22.05843         0.093658     -0.050238     -0.189230
      0.01162      5.64523     22.13102        -0.214087      0.144770     -0.164407
      2.83163      5.78138     21.90949        -0.164366     -0.129754      0.233289
      5.69847      5.82873     22.12642        -0.183813     -0.281915     -0.205183
      8.47460      5.74592     22.05197         0.212861      0.044221     -0.224705
     11.39144      8.46062     22.10321         0.001087      0.242351     -0.474695
      2.91275      8.60223     22.00325        -0.624682     -0.068780      0.118672
      5.56783      8.61673     21.91375         0.433707     -0.030597      0.258442
      8.52719      8.64816     21.98876        -0.078077     -0.206703     -0.132916
     11.35886     11.33892     22.00690         0.082468      0.230384     -0.028134
      2.78636     11.41127     22.06265        -0.148654      0.095021      0.344703
      5.62146     11.38551     21.90612        -0.027524      0.253602      0.541970
      8.51111     11.46983     21.99057        -0.117647      0.013021      0.221322
     11.34102     14.29748     22.08793        -0.157103     -0.089496     -0.218485
      2.77586     14.29735     22.03359         0.027643     -0.145897      0.249815
      5.61027     14.23933     22.02869         0.060644     -0.192462      0.066785
      8.39406     14.34186     21.94434         0.361663     -0.086295      0.493244
      1.29127      1.41716     24.01029         0.297471      0.074747      0.223480
      4.16152      1.40523     23.98446         0.204308      0.291744      0.371967
      7.02953      1.53846     23.97681         0.130999     -0.434377      0.352310
      9.94771      1.41799     24.12241        -0.038127     -0.175271     -0.063947
      1.40326      4.23731     24.02272         0.070330      0.010265     -0.032409
      4.25365      4.35066     23.96581        -0.068971     -0.229257      0.184754
      7.16845      4.33413     24.00216        -0.601336      0.031698      0.122769
      9.84795      4.28120     24.02013         0.687664      0.129448     -0.029993
      1.44736      7.07955     24.00395        -0.387224      0.165140      0.016101
      4.11753      7.12738     24.04976         0.724778      0.056273     -0.172075
      7.10958      7.23120     23.96675        -0.097648     -0.060803      0.220981
      9.94028      7.16107     23.98557         0.001507     -0.138433      0.159399
      1.32527      9.91268     23.97529         0.276448      0.321663      0.073877
      4.29128     10.01265     24.07160        -0.176675      0.051634     -0.304399
      7.05994      9.97671     23.93659         0.157364      0.291089      0.093658
      9.92357      9.97335     24.01622         0.057465      0.012651     -0.031928
      1.34068     12.88530     24.04211         0.240747     -0.262734     -0.104387
      4.25525     12.79486     24.12778         0.056279      0.078505     -0.370064
      7.15420     12.85782     24.06759        -0.118429     -0.069689     -0.104000
      9.98909     12.74799     23.95131        -0.149311      0.380868      0.160711
      1.39572     15.69785     23.97937         0.065388      0.113674      0.258419
      4.34883     15.64362     24.04486        -0.410883      0.073541      0.241422
      7.08102     15.74953     24.01605         0.212649     -0.042855      0.186324
      9.98467     15.64804     24.14348        -0.092940      0.363107     -0.291103
      0.00885     17.17430     26.19801        -0.158472      0.043055     -0.226059
      2.77437     17.17241     25.91991         0.153655      0.023853      0.325810
      5.67059     17.17779     26.10493        -0.181209      0.029956     -0.209340
      8.40928      0.06754     26.08138         0.434793     -0.228159     -0.232060
     11.39720      2.90035     26.01622         0.086928      0.084077      0.272999
      2.90462      2.96463     26.03827        -0.088688     -0.236553     -0.030978
      5.80305      2.87042     26.14361        -0.263591      0.006124     -0.140225
      8.53931      2.97035     26.00451         0.074009     -0.198101      0.463447
     11.37828      5.73506     25.96959        -0.083254     -0.038203      0.213336
      2.75891      5.81708     26.06842         0.269838     -0.340320     -0.121720
      5.66193      5.67299     26.02709         0.027611      0.239350      0.046388
      8.50926      5.80815     26.00112         0.031790     -0.045565      0.191941
     11.40651      8.61020     25.98536         0.046907     -0.185489      0.269137
      2.85316      8.56829     25.95053        -0.217729      0.262329      0.450851
      5.73027      8.57685     25.94415        -0.023991     -0.194984      0.260789
      8.57789      8.62234     26.04377        -0.039564      0.065470      0.062652
      0.01378     11.43127     26.01142         0.028277     -0.106628      0.214252
      2.86693     11.38482     26.08374        -0.142579      0.022312     -0.094446
      5.78311     11.39342     26.08187        -0.123618      0.262533     -0.357007
      8.72958     11.44209     26.10439        -0.423060      0.100707      0.013511
     11.40805     14.29001     26.05942         0.144192      0.066704      0.172746
      2.82283     14.28371     26.04141         0.047123      0.040820      0.044044
      5.69119     14.23728     26.12809         0.054050      0.265773     -0.170541
      8.60269     14.31150     26.02296        -0.262992     -0.062790      0.206044
      1.40860      1.57573     28.19170         0.057475     -0.345957     -0.453223
      4.29625      1.52506     28.07241        -0.313534     -0.340522      0.030849
      7.24808      1.34903     28.18304        -0.337017      0.356839     -0.184942
      9.96964      1.52388     28.07108        -0.050203     -0.268442     -0.071755
      1.56481      4.39633     28.10607        -0.888225     -0.260337     -0.099266
      4.25093      4.32140     28.14480         0.364001      0.176716     -0.112871
      7.15028      4.35574     28.18975        -0.174574      0.094660     -0.213746
      9.88663      4.49646     28.19895         0.260629     -0.531446     -0.383493
      1.40598      7.10033     28.07538        -0.115957      0.337636      0.169431
      4.28514      7.27676     28.03995         0.040348     -0.218622      0.213785
      7.21859      7.23203     28.02311        -0.393667     -0.153997      0.182853
     10.05647      7.17622     28.12805        -0.212964      0.234763     -0.247830
      1.34270      9.88751     28.11722        -0.132293      0.171726     -0.175667
      4.27689     10.04089     28.08777        -0.292899     -0.160535     -0.030915
      6.98190     10.11561     28.03659         0.596012     -0.484076      0.189469
      9.89957     10.09173     28.23241         0.098458     -0.055686     -0.294728
      1.42062     12.79558     28.01885        -0.179741      0.100418      0.122240
      4.25370     12.89562     28.08482         0.001299     -0.092492      0.029688
      7.14821     12.90308     28.10818        -0.005183      0.081349     -0.041435
     10.03441     13.00148     28.18056        -0.198707     -0.517485     -0.263200
      1.53484     15.71804     28.10694        -0.504873      0.081728     -0.082806
      4.21450     15.79818     28.14842         0.160033     -0.047592     -0.249327
      7.10679     15.72739     28.08506         0.022777     -0.095781      0.056091
      9.99297     15.75918     28.12579        -0.012915      0.154847     -0.103055
      0.00311     17.15187     30.08124        -0.190098      0.047690     -0.282242
      2.78439     17.15036     30.16751         0.111814      0.232069     -0.247662
      5.65632      0.01781     30.06463        -0.066569     -0.057050      0.104227
      8.51830     17.11848     30.11162         0.160818      0.207536      0.032755
     11.24043      2.80172     30.00065         0.304170      0.555829      0.389073
      2.71058      2.95045     30.09995         0.238087     -0.398959      0.172435
      5.68617      2.80622     29.99423        -0.152298      0.355052      0.378683
      8.43473      2.94902     30.20786         0.322830     -0.273115     -0.402697
     11.30218      5.73967     30.19500         0.270257     -0.160682     -0.163358
      2.79556      5.75635     30.14036         0.041188      0.173587     -0.085325
      5.57931      5.76132     30.16434         0.216048     -0.082767     -0.120268
      8.50953      5.78135     30.22331        -0.189692      0.204780     -0.379738
     11.25180      8.54524     30.11366         0.333680      0.168633      0.195696
      2.68563      8.59928     30.17696         0.074974     -0.100586     -0.203185
      5.65359      8.57805     30.14394        -0.063093     -0.084275     -0.257003
      8.38117      8.59913     30.08488         0.406244      0.038490     -0.072877
     11.39428     11.43070     30.12622        -0.098178     -0.067973     -0.087918
      2.74296     11.38148     29.99261         0.142118     -0.008251      0.206669
      5.65239     11.42409     30.05716        -0.169975      0.161611      0.239865
      8.35162     11.44493     30.11611         0.533734      0.000257     -0.093736
     11.44371     14.28796     30.07582         0.039763      0.069716      0.081003
      2.79050     14.18863     30.05119        -0.032543      0.290603      0.037808
      5.59093     14.37163     30.09440         0.324051     -0.155534     -0.090922
      8.49703     14.32106     30.10143        -0.004020     -0.011251     -0.009036
      1.23842      1.36557     32.12731         0.436617      0.266948     -0.059937
      4.16143      1.46546     32.11984         0.092412     -0.227925     -0.033982
      7.03435      1.45172     32.06773         0.058359     -0.262524      0.110378
      9.97700      1.47171     32.09006        -0.306695     -0.005105     -0.101962
      1.31628      4.25808     32.09078        -0.162462     -0.029763      0.279832
      4.15721      4.20450     32.12790         0.275146      0.256499      0.021604
      7.17445      4.29826     32.20583        -0.814394      0.178974     -0.085053
      9.80069      4.37451     32.17152         0.932232     -0.341247      0.035359
      1.33863      7.06847     32.15557        -0.084080      0.351113      0.095675
      4.15986      7.22513     32.17813         0.325282     -0.168592     -0.172862
      7.13384      7.19883     32.13110        -0.284416     -0.280397      0.154105
      9.99071      7.18584     32.26770        -0.087948     -0.032971     -0.299435
      1.30971     10.00964     32.24054         0.072736     -0.067716     -0.062415
      4.29330      9.94202     32.05907        -0.099032      0.410947      0.211128
      7.23297      9.98851     32.20178        -0.636481      0.353035     -0.251975
      9.95107      9.93272     32.19814         0.229098      0.263046     -0.132018
      1.39756     12.84682     32.06726        -0.103980     -0.128070      0.265431
      4.22869     12.88284     32.00304         0.058660     -0.289744      0.242347
      7.11385     12.92321     32.14116        -0.217302     -0.094467      0.104893
      9.85240     12.75063     32.05802         0.329071      0.320493      0.311135
      1.34693     15.74691     32.14533         0.154669     -0.256238     -0.098485
      4.19897     15.72678     32.09607         0.110981      0.049353      0.062738
      7.05481     15.76893     32.15018        -0.047352     -0.198925     -0.113013
     10.01981     15.79359     32.00290        -0.156152     -0.463726      0.224065
     11.32622     17.13940     34.07669         0.320519     -0.124257      0.305888
      2.81215     17.09673     34.09772        -0.068898      0.053145      0.127398
      5.67446     17.12908     34.19525        -0.137488      0.038195     -0.231537
      8.59666     17.09018     33.97618        -0.363173      0.333652      0.381848
     11.37080      2.82280     34.13766         0.298563      0.220164     -0.077135
      2.79438      2.73481     34.24299        -0.137884      0.450330     -0.208361
      5.70868      2.82659     34.07035        -0.231199      0.094304      0.366770
      8.49685      2.78516     34.16574        -0.059038      0.150835     -0.055609
     11.34711      5.79602     34.21158         0.404593     -0.286167     -0.180219
      2.91074      5.78791     34.05872        -0.455118     -0.548305      0.405892
      5.68617      5.71058     34.10970         0.053432      0.044194     -0.018376
      8.59745      5.70193     34.19264        -0.438178      0.149228      0.148809
     11.34164      8.57555     34.28928         0.169918      0.311703     -0.141106
      2.78093      8.55436     34.26055         0.139036      0.104317     -0.169473
      5.70007      8.61550     34.09522        -0.270513     -0.232089      0.348126
      8.44900      8.56540     34.11230         0.304908     -0.162707      0.598324
     11.24330     11.48345     34.31648         0.531969     -0.381141     -0.640430
      2.93376     11.36622     34.06393        -0.112059      0.138538      0.169666
      5.73853     11.41873     34.22968        -0.309104     -0.126577     -0.207047
      8.51679     11.40630     34.25778         0.019943      0.136600     -0.146933
      0.01612     14.21979     34.08444        -0.361862      0.234407     -0.057267
      2.89932     14.20192     34.12875        -0.409749     -0.003605     -0.040963
      5.57764     14.19605     34.11506         0.457979      0.206840      0.158794
      8.56710     14.32570     34.21753        -0.021945     -0.338229     -0.377963
      1.35293      1.35077     36.15463        -0.238079     -0.038003     -0.182158
      4.16845      1.27569     36.14344         0.218819      0.090770     -0.252372
      7.03654      1.47327     36.14384         0.144969     -0.334656     -0.579360
      9.94540      1.45438     36.02205         0.047774     -0.439661      0.363299
      1.37420      4.41448     36.16070         0.202817     -0.497354     -0.256811
      4.21667      4.20664     36.18984         0.017376      0.164450     -0.325826
      7.06108      4.44698     36.20832         0.006548     -0.660921     -0.427234
     10.03332      4.25285     36.07113        -0.200300      0.131429      0.240457
      1.37168      7.14475     36.18217         0.116057      0.076213      0.086549
      4.28277      6.99864     36.15539        -0.120212      0.242456      0.187857
      7.09994      7.07935     36.24659        -0.030673      0.380453     -0.343335
      9.91804      7.19855     36.18812         0.119251     -0.112246      0.021936
      1.49500     10.11040     36.12568        -0.244027     -0.207781      0.033678
      4.25982      9.85417     36.35246        -0.186203      0.113731     -0.519468
      7.02811      9.88821     36.23084         0.276781      0.232354     -0.062255
      9.88498     10.08363     36.26114         0.064168     -0.286148     -0.057678
      1.37176     12.90120     36.10349         0.382573     -0.037575      0.016983
      4.25493     12.73516     36.25388        -0.083070      0.129045     -0.550039
      7.15050     12.76737     36.16887         0.025843      0.236062      0.061841
     10.05174     12.84509     36.23918        -0.689282      0.383820     -0.147694
      1.33957     15.65713     36.12309         0.010709      0.190255      0.047848
      4.16590     15.56008     36.16395         0.045375      0.280017     -0.074247
      7.06625     15.71432     36.09778         0.083144     -0.023701     -0.079781
      9.88159     15.75041     36.12292         0.245341      0.093192      0.204188
     11.44495     17.11657     38.24282        -0.201943      0.077019     -0.353951
      2.81545     17.13168     38.23616        -0.024735     -0.245165     -0.213600
      5.66852     17.13112     38.08092        -0.188694     -0.119434      0.064220
      8.39501      0.04245     38.20215         0.370623     -0.182635     -0.279620
     11.36563      2.83641     38.17037         0.044652     -0.181987     -0.225920
      2.83439      2.71916     38.07174        -0.156494      0.351891      0.099572
      5.67126      2.77177     38.02939        -0.100557      0.210992      0.279993
      8.51102      2.82074     37.97461         0.118607      0.170424      0.203464
     11.40723      5.59867     38.25466        -0.123850      0.261471     -0.214123
      2.72477      5.69433     38.35663         0.226221     -0.103225     -0.394273
      5.70904      5.63519     38.32984        -0.182513      0.073951     -0.179900
      8.61004      5.67039     38.17138         0.012587     -0.016110      0.051483
     11.43666      8.62339     38.12525        -0.143947      0.004261     -0.024773
      2.71953      8.49737     38.36479         0.167958      0.089420     -0.347151
      5.68286      8.51177     38.25240         0.017936     -0.125806      0.042041
      8.59115      8.54365     38.23316        -0.103554      0.112455      0.044256
      0.02828     11.51267     38.12090        -0.089504     -0.305899      0.139300
      2.76038     11.52084     38.16801         0.060096     -0.384503      0.115390
      5.60407     11.43002     38.25440         0.234714     -0.124101     -0.044346
      8.50686     11.48852     38.29599        -0.098641     -0.145790     -0.211645
     11.29803     14.29967     38.19881         0.348339      0.168598     -0.137854
      2.85337     14.23251     38.35177        -0.154427      0.263564     -0.415407
      5.71777     14.26430     38.04375         0.088374     -0.013977      0.184165
      8.55457     14.31616     38.29731        -0.221910      0.069849     -0.358822
 -----------------------------------------------------------------------------------
    total drift:                               -0.001195     -0.000124     -0.000800


--------------------------------------------------------------------------------------------------------



  FREE ENERGIE OF THE ION-ELECTRON SYSTEM (eV)
  ---------------------------------------------------
  free  energy   TOTEN  =      -968.72610469 eV

  energy  without entropy=     -968.88895140  energy(sigma->0) =     -968.78038693
 


--------------------------------------------------------------------------------------------------------


    POTLOK:  cpu time    0.0683: real time    0.0683


--------------------------------------------------------------------------------------------------------


 writing wavefunctions
     LOOP+:  cpu time  608.5702: real time  612.5296
    4ORBIT:  cpu time    0.0000: real time    0.0000

 total amount of memory used by VASP MPI-rank0   168083. kBytes
=======================================================================

   base      :      30000. kBytes
   nonl-proj :      95132. kBytes
   fftplans  :      14387. kBytes
   grid      :      16056. kBytes
   one-center:        184. kBytes
   wavefun   :      12324. kBytes
 
  
  
 General timing and accounting informations for this job:
 ========================================================
  
                  Total CPU time used (sec):      621.927
                            User time (sec):      614.820
                          System time (sec):        7.107
                         Elapsed time (sec):      627.672
  
                   Maximum memory used (kb):      276820.
                   Average memory used (kb):           0.
  
                          Minor page faults:       119238
                          Major page faults:            0
                 Voluntary context switches:        11461
