<?xml version="1.0" encoding="ISO-8859-1"?>
<modeling>
 <generator>
  <i name="program" type="string">vasp </i>
  <i name="version" type="string">5.4.4.18Apr17-6-g9f103f2a35  </i>
  <i name="subversion" type="string">(build May 07 2018 22:18:08) complex            parallel </i>
  <i name="platform" type="string">LinuxIFC </i>
  <i name="date" type="string">2020 08 14 </i>
  <i name="time" type="string">16:38:30 </i>
 </generator>
 <incar>
  <i type="string" name="PREC">normal</i>
  <i type="int" name="NSIM">     4</i>
  <v type="int" name="KPOINT_BSE">    -1     0     0     0</v>
 </incar>
 <structure name="primitive_cell" >
  <crystal>
   <varray name="basis" >
    <v>      11.45512986       0.00000000       0.00000000 </v>
    <v>       0.00000000      17.18269478       0.00000000 </v>
    <v>       0.00000000       0.00000000      58.22500000 </v>
   </varray>
   <i name="volume">  11460.42675000 </i>
   <varray name="rec_basis" >
    <v>       0.08729713       0.00000000       0.00000000 </v>
    <v>       0.00000000       0.05819809       0.00000000 </v>
    <v>       0.00000000       0.00000000       0.01717475 </v>
   </varray>
  </crystal>
  <varray name="positions" >
   <v>       0.11434577       0.07504146       0.34494810 </v>
   <v>      -0.00088484      -0.00142574       0.37978935 </v>
   <v>       0.35836430       0.08171529       0.34010930 </v>
   <v>       0.25253800       0.00008051       0.37872852 </v>
   <v>      -0.00649009       0.16294071       0.37872052 </v>
   <v>      -0.13286734       0.08465698       0.34114950 </v>
   <v>       0.11018339      -0.09044597       0.34276074 </v>
   <v>       0.24926801       0.16980061       0.37675011 </v>
   <v>       0.11028207       0.25117364       0.34321668 </v>
   <v>       0.11272448       0.08247620       0.41237077 </v>
   <v>      -0.13907250      -0.07992894       0.34261957 </v>
   <v>       0.36571094      -0.09168357       0.34430388 </v>
   <v>      -0.12760884       0.25249097       0.34510661 </v>
   <v>       0.37418082       0.25202437       0.34434707 </v>
   <v>       0.12184218      -0.08641533       0.41183982 </v>
   <v>      -0.25162998       0.00009445       0.37977879 </v>
   <v>       0.36328844       0.08178153       0.41192724 </v>
   <v>       0.24232427      -0.16792134       0.37842145 </v>
   <v>      -0.00996151      -0.16791399       0.37935482 </v>
   <v>       0.48809684      -0.00205155       0.37930064 </v>
   <v>      -0.25414174       0.16616689       0.37884809 </v>
   <v>       0.12250068       0.24660362       0.41258429 </v>
   <v>      -0.13159318       0.08252415       0.41429646 </v>
   <v>       0.00101398       0.32854136       0.38009475 </v>
   <v>       0.49321664       0.16538679       0.37907057 </v>
   <v>       0.24719289       0.33646544       0.37629010 </v>
   <v>       0.11473034      -0.24715992       0.34323061 </v>
   <v>      -0.12836688      -0.08931394       0.41465837 </v>
   <v>      -0.38501277       0.08293679       0.34643058 </v>
   <v>       0.37964080      -0.08957148       0.41296457 </v>
   <v>      -0.14030224       0.24915759       0.41253981 </v>
   <v>       0.37133153       0.25320038       0.41160687 </v>
   <v>       0.11441737       0.42207930       0.34251722 </v>
   <v>       0.24219447      -0.00059856       0.44516808 </v>
   <v>      -0.14260664      -0.24517331       0.34244535 </v>
   <v>      -0.26722236      -0.16533143       0.37688858 </v>
   <v>      -0.00505690       0.16879489       0.44682219 </v>
   <v>       0.48976065      -0.17129805       0.37833726 </v>
   <v>      -0.38329918      -0.08653446       0.34286791 </v>
   <v>       0.35574316      -0.25855765       0.34379351 </v>
   <v>       0.00077228      -0.00048830       0.44994434 </v>
   <v>       0.25356516       0.17253592       0.44720090 </v>
   <v>      -0.38513520       0.24897553       0.34336473 </v>
   <v>      -0.26019202       0.33440166       0.37873708 </v>
   <v>      -0.13741466       0.41421591       0.34291291 </v>
   <v>       0.36798048       0.41627038       0.34193385 </v>
   <v>       0.49745997       0.33922110       0.38001576 </v>
   <v>       0.11703770      -0.25010026       0.41291725 </v>
   <v>      -0.38634244       0.08953547       0.41179586 </v>
   <v>       0.12635023       0.41201631       0.41226193 </v>
   <v>      -0.00410994      -0.16834881       0.44756411 </v>
   <v>      -0.38184767      -0.08340742       0.41246967 </v>
   <v>       0.24642475      -0.16871552       0.44725481 </v>
   <v>      -0.12798147      -0.25809108       0.41135776 </v>
   <v>      -0.25454236       0.17286877       0.44662099 </v>
   <v>      -0.37421461       0.25223821       0.41223122 </v>
   <v>       0.24324135      -0.33588611       0.37892051 </v>
   <v>      -0.00670902       0.33376958       0.44602132 </v>
   <v>      -0.26589403       0.00393065       0.44794121 </v>
   <v>      -0.00840400      -0.34009651       0.37796313 </v>
   <v>       0.49502585      -0.00028528       0.44834571 </v>
   <v>       0.37147094      -0.25536370       0.41438869 </v>
   <v>      -0.00555989       0.49239183       0.37961722 </v>
   <v>      -0.13224191       0.41676075       0.41194617 </v>
   <v>       0.35944845       0.41479985       0.41304861 </v>
   <v>       0.24084456       0.33854310       0.44771864 </v>
   <v>      -0.49341027       0.16705294       0.44901009 </v>
   <v>       0.25427439      -0.49936665       0.37790041 </v>
   <v>      -0.38313272      -0.25380378       0.34298313 </v>
   <v>       0.12296685       0.09170459       0.48418540 </v>
   <v>      -0.39018197       0.41255599       0.34298500 </v>
   <v>       0.11579782      -0.41012783       0.34241923 </v>
   <v>      -0.24900967      -0.16709792       0.44693792 </v>
   <v>      -0.25700426      -0.33247760       0.37768263 </v>
   <v>      -0.12967895       0.08868681       0.48211383 </v>
   <v>       0.13398712      -0.08524012       0.48272983 </v>
   <v>       0.49073740      -0.33738529       0.37623218 </v>
   <v>       0.37505052       0.08875534       0.48213672 </v>
   <v>       0.49427010       0.33015730       0.44700882 </v>
   <v>      -0.25716586       0.33802298       0.44656282 </v>
   <v>       0.49682477      -0.17141724       0.44874357 </v>
   <v>       0.13660370       0.25585780       0.48271488 </v>
   <v>       0.48605567      -0.49852292       0.37636322 </v>
   <v>      -0.25560093      -0.49669346       0.37765146 </v>
   <v>      -0.14158676      -0.41191606       0.34317463 </v>
   <v>      -0.37545864      -0.25169921       0.41335489 </v>
   <v>       0.35326606      -0.41771833       0.34240624 </v>
   <v>      -0.12764260      -0.08284612       0.48305346 </v>
   <v>       0.36791411      -0.08057612       0.48344209 </v>
   <v>      -0.37935381       0.42084191       0.41162300 </v>
   <v>       0.37109398       0.25149750       0.48338004 </v>
   <v>      -0.13692533       0.26168552       0.48430993 </v>
   <v>       0.00120327      -0.33472165       0.44673974 </v>
   <v>       0.11569247      -0.42310090       0.41176972 </v>
   <v>       0.25027456      -0.33742525       0.44798181 </v>
   <v>       0.24907286       0.49865785       0.44569392 </v>
   <v>      -0.00424456      -0.49890259       0.44629210 </v>
   <v>       0.12401614      -0.25532186       0.48121691 </v>
   <v>      -0.13370093      -0.41957027       0.41247260 </v>
   <v>      -0.36726354       0.07851092       0.48403675 </v>
   <v>       0.37461611      -0.41728268       0.41342385 </v>
   <v>       0.12273780       0.41322571       0.48218774 </v>
   <v>      -0.23793293      -0.33409214       0.44833651 </v>
   <v>      -0.38864241      -0.41263536       0.34197994 </v>
   <v>      -0.12402455      -0.24333896       0.48399408 </v>
   <v>      -0.01874249       0.16305480      -0.48474630 </v>
   <v>       0.00027186      -0.00179417      -0.48336206 </v>
   <v>      -0.37959735      -0.08469589       0.48235401 </v>
   <v>       0.37133578      -0.24949950       0.48234983 </v>
   <v>       0.23662574       0.17171048      -0.48304084 </v>
   <v>       0.24306969      -0.00188209      -0.48188052 </v>
   <v>      -0.49515135      -0.33692460       0.44794970 </v>
   <v>      -0.37580089       0.25349554       0.48415192 </v>
   <v>      -0.12209912       0.41764236       0.48309228 </v>
   <v>      -0.25117501      -0.49819633       0.44729533 </v>
   <v>      -0.49976377       0.49915612       0.44558444 </v>
   <v>       0.37408032       0.42349371       0.48157926 </v>
   <v>      -0.00099719      -0.16846814      -0.48345529 </v>
   <v>      -0.38368766      -0.41937468       0.41110497 </v>
   <v>       0.49638658       0.16331650      -0.48485644 </v>
   <v>       0.24360288      -0.17424857      -0.48387827 </v>
   <v>       0.49378022       0.00103637      -0.48364741 </v>
   <v>      -0.25637676      -0.00373705      -0.48284043 </v>
   <v>       0.24404419       0.33500845      -0.48234683 </v>
   <v>      -0.26367192       0.17162743      -0.48118740 </v>
   <v>      -0.01335224       0.33403756      -0.48140833 </v>
   <v>      -0.37598147      -0.24906548       0.48275105 </v>
   <v>      -0.36983743       0.42089012       0.48129001 </v>
   <v>       0.48807258      -0.16359857      -0.48313615 </v>
   <v>      -0.25823342      -0.16654180      -0.48301534 </v>
   <v>       0.11721365      -0.42456582       0.48290626 </v>
   <v>       0.48705747       0.33529801      -0.48193499 </v>
   <v>      -0.25714234       0.33646341      -0.48092217 </v>
   <v>       0.37336020      -0.41563956       0.48240053 </v>
   <v>      -0.13579572      -0.41268046       0.48488471 </v>
   <v>       0.10811052       0.07947358      -0.44822147 </v>
   <v>       0.23945217      -0.33761978      -0.48488425 </v>
   <v>      -0.12903653       0.08565056      -0.44886110 </v>
   <v>      -0.00531238      -0.33475486      -0.48258953 </v>
   <v>       0.11758318      -0.08355994      -0.44791191 </v>
   <v>       0.11490748       0.24781199      -0.44884871 </v>
   <v>       0.36328101       0.08528722      -0.44834963 </v>
   <v>      -0.01775054       0.49731693      -0.48280528 </v>
   <v>      -0.12529959      -0.08084345      -0.45035811 </v>
   <v>       0.23444749      -0.49953860      -0.48171813 </v>
   <v>       0.36655825      -0.08473168      -0.44875794 </v>
   <v>       0.36291284       0.24469402      -0.44821127 </v>
   <v>      -0.14442815       0.25458819      -0.44746209 </v>
   <v>      -0.39050028      -0.41129066       0.48152154 </v>
   <v>       0.49343755      -0.33514002      -0.48377564 </v>
   <v>      -0.27092745      -0.33392704      -0.48276332 </v>
   <v>      -0.26834764      -0.49954704      -0.48329966 </v>
   <v>       0.49354204       0.49922636      -0.48228527 </v>
   <v>       0.12200300      -0.25233962      -0.44925270 </v>
   <v>      -0.38592173       0.08448760      -0.44924461 </v>
   <v>       0.11685868       0.41137163      -0.44773606 </v>
   <v>       0.36915214      -0.25024337      -0.45035577 </v>
   <v>      -0.13991406      -0.25793746      -0.44941135 </v>
   <v>      -0.38413506      -0.08227817      -0.44782853 </v>
   <v>      -0.37369083       0.25015053      -0.44687274 </v>
   <v>       0.36314396       0.42048879      -0.44734857 </v>
   <v>      -0.12784002       0.41820216      -0.44581016 </v>
   <v>      -0.01125312      -0.00251980      -0.41474121 </v>
   <v>       0.24549278      -0.00500312      -0.41438002 </v>
   <v>      -0.00736186       0.16428167      -0.41369406 </v>
   <v>       0.24394104       0.15916055      -0.41188506 </v>
   <v>      -0.37898116      -0.24789408      -0.44798351 </v>
   <v>      -0.37723580       0.41895842      -0.44815633 </v>
   <v>      -0.24953589      -0.00538408      -0.41646751 </v>
   <v>       0.00140734      -0.17243536      -0.41460813 </v>
   <v>       0.49835159       0.16450193      -0.41485017 </v>
   <v>       0.25310272      -0.17347511      -0.41384719 </v>
   <v>       0.25409960       0.33684541      -0.41504995 </v>
   <v>      -0.25824942       0.16209084      -0.41321181 </v>
   <v>       0.11433370      -0.41745797      -0.44627673 </v>
   <v>       0.49536375      -0.00312054      -0.41270495 </v>
   <v>      -0.00942990       0.33731749      -0.41242456 </v>
   <v>       0.37479302      -0.42139348      -0.44939333 </v>
   <v>      -0.13130023      -0.42193496      -0.44700487 </v>
   <v>       0.48691205      -0.17381673      -0.41408220 </v>
   <v>      -0.25211711      -0.16627153      -0.41232241 </v>
   <v>       0.49638658       0.33234489      -0.41417434 </v>
   <v>      -0.24946746       0.33184155      -0.41274988 </v>
   <v>       0.25610866      -0.33850755      -0.41496046 </v>
   <v>      -0.36858257      -0.41868761      -0.44694238 </v>
   <v>      -0.01849254      -0.33168538      -0.41062294 </v>
   <v>       0.24276688       0.49784762      -0.41158351 </v>
   <v>      -0.00990721       0.49908052      -0.41109012 </v>
   <v>       0.11810649       0.07861249      -0.37905311 </v>
   <v>      -0.13179500       0.08464192      -0.38133013 </v>
   <v>       0.11694102      -0.08878496      -0.37959477 </v>
   <v>       0.36389333       0.07424254      -0.37924538 </v>
   <v>       0.11996366       0.25691428      -0.37894889 </v>
   <v>      -0.26242609       0.49848983      -0.41412969 </v>
   <v>      -0.25650824      -0.33617528      -0.41163115 </v>
   <v>       0.49759944      -0.49859417      -0.41442304 </v>
   <v>      -0.49904257      -0.33545194      -0.41211367 </v>
   <v>      -0.12411971       0.24750779      -0.38048726 </v>
   <v>      -0.13736539      -0.08335649      -0.37959773 </v>
   <v>       0.36367124      -0.09443296      -0.37889304 </v>
   <v>       0.36810308       0.24481823      -0.37844843 </v>
   <v>       0.11975103      -0.24917481      -0.37993153 </v>
   <v>      -0.38573033       0.08574175      -0.37923852 </v>
   <v>       0.11974385       0.41581059      -0.37858020 </v>
   <v>      -0.38313701      -0.08545666      -0.38002947 </v>
   <v>       0.37387334       0.40730726      -0.37904005 </v>
   <v>      -0.12251155      -0.25244010      -0.37760111 </v>
   <v>      -0.13418372       0.41894204      -0.37847797 </v>
   <v>      -0.38358802       0.25880574      -0.37813108 </v>
   <v>       0.37144288      -0.25883797      -0.37734859 </v>
   <v>      -0.37578147      -0.25696345      -0.37880859 </v>
   <v>      -0.38019577       0.41200489      -0.37747375 </v>
   <v>       0.13050949      -0.41159398      -0.37955043 </v>
   <v>       0.24743378       0.15824978      -0.34612723 </v>
   <v>      -0.00781301       0.16507341      -0.34443328 </v>
   <v>      -0.00088841      -0.00384844      -0.34318893 </v>
   <v>       0.24578054      -0.00296923      -0.34330334 </v>
   <v>      -0.13706990      -0.41315210      -0.37722390 </v>
   <v>      -0.25701226       0.16416180      -0.34779553 </v>
   <v>       0.49508479       0.16131184      -0.34685462 </v>
   <v>       0.49484570      -0.00300153      -0.34596958 </v>
   <v>       0.37187026      -0.42650629      -0.37565541 </v>
   <v>      -0.01371415      -0.16778660      -0.34394483 </v>
   <v>      -0.26713961       0.00247025      -0.34388743 </v>
   <v>      -0.00418148       0.32583217      -0.34298569 </v>
   <v>       0.24909146      -0.17169483      -0.34131775 </v>
   <v>       0.23786489       0.33139889      -0.34123428 </v>
   <v>       0.49914493      -0.16984484      -0.34660800 </v>
   <v>      -0.24836823       0.33000610      -0.34441602 </v>
   <v>      -0.25321022      -0.16682667      -0.34225322 </v>
   <v>      -0.38646598      -0.42452531      -0.37774433 </v>
   <v>       0.49838271       0.32795742      -0.34169444 </v>
   <v>       0.00246857      -0.32998447      -0.34528294 </v>
   <v>       0.24097351      -0.32950926      -0.34447385 </v>
   <v>      -0.00161200      -0.49813532      -0.34520818 </v>
   <v>       0.23740695       0.49453097      -0.34109413 </v>
   <v>       0.48921964      -0.33479487      -0.34299006 </v>
   <v>      -0.25737582      -0.33139013      -0.34227575 </v>
   <v>      -0.25001719       0.49722412      -0.34335496 </v>
   <v>       0.49609746       0.49536851      -0.34302446 </v>
  </varray>
 </structure>
 <varray name="primitive_index" >
  <v type="int" >        1 </v>
  <v type="int" >       25 </v>
  <v type="int" >        2 </v>
  <v type="int" >       26 </v>
  <v type="int" >       29 </v>
  <v type="int" >        4 </v>
  <v type="int" >       21 </v>
  <v type="int" >       30 </v>
  <v type="int" >        5 </v>
  <v type="int" >       49 </v>
  <v type="int" >       24 </v>
  <v type="int" >       22 </v>
  <v type="int" >        8 </v>
  <v type="int" >        6 </v>
  <v type="int" >       69 </v>
  <v type="int" >       28 </v>
  <v type="int" >       50 </v>
  <v type="int" >       46 </v>
  <v type="int" >       45 </v>
  <v type="int" >       27 </v>
  <v type="int" >       32 </v>
  <v type="int" >       53 </v>
  <v type="int" >       52 </v>
  <v type="int" >       33 </v>
  <v type="int" >       31 </v>
  <v type="int" >       34 </v>
  <v type="int" >       17 </v>
  <v type="int" >       72 </v>
  <v type="int" >        3 </v>
  <v type="int" >       70 </v>
  <v type="int" >       56 </v>
  <v type="int" >       54 </v>
  <v type="int" >        9 </v>
  <v type="int" >       74 </v>
  <v type="int" >       20 </v>
  <v type="int" >       48 </v>
  <v type="int" >       77 </v>
  <v type="int" >       47 </v>
  <v type="int" >       23 </v>
  <v type="int" >       18 </v>
  <v type="int" >       73 </v>
  <v type="int" >       78 </v>
  <v type="int" >        7 </v>
  <v type="int" >       36 </v>
  <v type="int" >       12 </v>
  <v type="int" >       10 </v>
  <v type="int" >       35 </v>
  <v type="int" >       65 </v>
  <v type="int" >       51 </v>
  <v type="int" >       57 </v>
  <v type="int" >       93 </v>
  <v type="int" >       71 </v>
  <v type="int" >       94 </v>
  <v type="int" >       68 </v>
  <v type="int" >       80 </v>
  <v type="int" >       55 </v>
  <v type="int" >       42 </v>
  <v type="int" >       81 </v>
  <v type="int" >       76 </v>
  <v type="int" >       41 </v>
  <v type="int" >       75 </v>
  <v type="int" >       66 </v>
  <v type="int" >       37 </v>
  <v type="int" >       60 </v>
  <v type="int" >       58 </v>
  <v type="int" >       82 </v>
  <v type="int" >       79 </v>
  <v type="int" >       38 </v>
  <v type="int" >       19 </v>
  <v type="int" >       97 </v>
  <v type="int" >       11 </v>
  <v type="int" >       13 </v>
  <v type="int" >       96 </v>
  <v type="int" >       44 </v>
  <v type="int" >      100 </v>
  <v type="int" >      117 </v>
  <v type="int" >       43 </v>
  <v type="int" >       98 </v>
  <v type="int" >       83 </v>
  <v type="int" >       84 </v>
  <v type="int" >       95 </v>
  <v type="int" >      101 </v>
  <v type="int" >       39 </v>
  <v type="int" >       40 </v>
  <v type="int" >       16 </v>
  <v type="int" >       67 </v>
  <v type="int" >       14 </v>
  <v type="int" >      120 </v>
  <v type="int" >      118 </v>
  <v type="int" >       59 </v>
  <v type="int" >      102 </v>
  <v type="int" >      104 </v>
  <v type="int" >       89 </v>
  <v type="int" >       61 </v>
  <v type="int" >       90 </v>
  <v type="int" >       86 </v>
  <v type="int" >       85 </v>
  <v type="int" >      113 </v>
  <v type="int" >       64 </v>
  <v type="int" >       99 </v>
  <v type="int" >       62 </v>
  <v type="int" >      105 </v>
  <v type="int" >       92 </v>
  <v type="int" >       15 </v>
  <v type="int" >      116 </v>
  <v type="int" >      125 </v>
  <v type="int" >      121 </v>
  <v type="int" >      119 </v>
  <v type="int" >      114 </v>
  <v type="int" >      126 </v>
  <v type="int" >      122 </v>
  <v type="int" >       91 </v>
  <v type="int" >      103 </v>
  <v type="int" >      108 </v>
  <v type="int" >       88 </v>
  <v type="int" >       87 </v>
  <v type="int" >      106 </v>
  <v type="int" >      141 </v>
  <v type="int" >       63 </v>
  <v type="int" >      127 </v>
  <v type="int" >      142 </v>
  <v type="int" >      123 </v>
  <v type="int" >      124 </v>
  <v type="int" >      130 </v>
  <v type="int" >      128 </v>
  <v type="int" >      129 </v>
  <v type="int" >      115 </v>
  <v type="int" >      107 </v>
  <v type="int" >      143 </v>
  <v type="int" >      144 </v>
  <v type="int" >      109 </v>
  <v type="int" >      131 </v>
  <v type="int" >      132 </v>
  <v type="int" >      110 </v>
  <v type="int" >      112 </v>
  <v type="int" >      145 </v>
  <v type="int" >      138 </v>
  <v type="int" >      148 </v>
  <v type="int" >      137 </v>
  <v type="int" >      165 </v>
  <v type="int" >      149 </v>
  <v type="int" >      146 </v>
  <v type="int" >      133 </v>
  <v type="int" >      168 </v>
  <v type="int" >      134 </v>
  <v type="int" >      166 </v>
  <v type="int" >      150 </v>
  <v type="int" >      152 </v>
  <v type="int" >      111 </v>
  <v type="int" >      139 </v>
  <v type="int" >      140 </v>
  <v type="int" >      136 </v>
  <v type="int" >      135 </v>
  <v type="int" >      161 </v>
  <v type="int" >      147 </v>
  <v type="int" >      153 </v>
  <v type="int" >      162 </v>
  <v type="int" >      164 </v>
  <v type="int" >      167 </v>
  <v type="int" >      151 </v>
  <v type="int" >      154 </v>
  <v type="int" >      156 </v>
  <v type="int" >      169 </v>
  <v type="int" >      170 </v>
  <v type="int" >      173 </v>
  <v type="int" >      174 </v>
  <v type="int" >      163 </v>
  <v type="int" >      155 </v>
  <v type="int" >      172 </v>
  <v type="int" >      189 </v>
  <v type="int" >      175 </v>
  <v type="int" >      190 </v>
  <v type="int" >      178 </v>
  <v type="int" >      176 </v>
  <v type="int" >      157 </v>
  <v type="int" >      171 </v>
  <v type="int" >      177 </v>
  <v type="int" >      158 </v>
  <v type="int" >      160 </v>
  <v type="int" >      191 </v>
  <v type="int" >      192 </v>
  <v type="int" >      179 </v>
  <v type="int" >      180 </v>
  <v type="int" >      186 </v>
  <v type="int" >      159 </v>
  <v type="int" >      185 </v>
  <v type="int" >      182 </v>
  <v type="int" >      181 </v>
  <v type="int" >      193 </v>
  <v type="int" >      196 </v>
  <v type="int" >      213 </v>
  <v type="int" >      194 </v>
  <v type="int" >      197 </v>
  <v type="int" >      184 </v>
  <v type="int" >      188 </v>
  <v type="int" >      183 </v>
  <v type="int" >      187 </v>
  <v type="int" >      200 </v>
  <v type="int" >      216 </v>
  <v type="int" >      214 </v>
  <v type="int" >      198 </v>
  <v type="int" >      209 </v>
  <v type="int" >      195 </v>
  <v type="int" >      201 </v>
  <v type="int" >      215 </v>
  <v type="int" >      202 </v>
  <v type="int" >      212 </v>
  <v type="int" >      204 </v>
  <v type="int" >      199 </v>
  <v type="int" >      210 </v>
  <v type="int" >      211 </v>
  <v type="int" >      203 </v>
  <v type="int" >      205 </v>
  <v type="int" >      222 </v>
  <v type="int" >      221 </v>
  <v type="int" >      217 </v>
  <v type="int" >      218 </v>
  <v type="int" >      208 </v>
  <v type="int" >      224 </v>
  <v type="int" >      223 </v>
  <v type="int" >      219 </v>
  <v type="int" >      206 </v>
  <v type="int" >      237 </v>
  <v type="int" >      220 </v>
  <v type="int" >      225 </v>
  <v type="int" >      238 </v>
  <v type="int" >      226 </v>
  <v type="int" >      239 </v>
  <v type="int" >      228 </v>
  <v type="int" >      240 </v>
  <v type="int" >      207 </v>
  <v type="int" >      227 </v>
  <v type="int" >      233 </v>
  <v type="int" >      234 </v>
  <v type="int" >      229 </v>
  <v type="int" >      230 </v>
  <v type="int" >      235 </v>
  <v type="int" >      236 </v>
  <v type="int" >      232 </v>
  <v type="int" >      231 </v>
 </varray>
 <kpoints>
  <generation param="Monkhorst-Pack">
   <v type="int" name="divisions">       1        1        1 </v>
   <v name="usershift">      0.00000000       0.00000000       0.00000000 </v>
   <v name="genvec1">      1.00000000       0.00000000       0.00000000 </v>
   <v name="genvec2">      0.00000000       1.00000000       0.00000000 </v>
   <v name="genvec3">      0.00000000       0.00000000       1.00000000 </v>
   <v name="shift">      0.00000000       0.00000000       0.00000000 </v>
  </generation>
  <varray name="kpointlist" >
   <v>       0.00000000       0.00000000       0.00000000 </v>
  </varray>
  <varray name="weights" >
   <v>       1.00000000 </v>
  </varray>
 </kpoints>
 <parameters>
  <separator name="general" >
   <i type="string" name="SYSTEM">unknown system</i>
   <i type="logical" name="LCOMPAT"> F  </i>
  </separator>
  <separator name="electronic" >
   <i type="string" name="PREC">normal</i>
   <i name="ENMAX">    240.95700000</i>
   <i name="ENAUG">    291.05200000</i>
   <i name="EDIFF">      0.00010000</i>
   <i type="int" name="IALGO">    38</i>
   <i type="int" name="IWAVPR">    10</i>
   <i type="int" name="NBANDS">   496</i>
   <i name="NELECT">    720.00000000</i>
   <i type="int" name="TURBO">     0</i>
   <i type="int" name="IRESTART">     0</i>
   <i type="int" name="NREBOOT">     0</i>
   <i type="int" name="NMIN">     0</i>
   <i name="EREF">      0.00000000</i>
   <separator name="electronic smearing" >
    <i type="int" name="ISMEAR">     1</i>
    <i name="SIGMA">      0.20000000</i>
    <i name="KSPACING">      0.50000000</i>
    <i type="logical" name="KGAMMA"> T  </i>
   </separator>
   <separator name="electronic projectors" >
    <i type="logical" name="LREAL"> F  </i>
    <v name="ROPT">      0.00000000</v>
    <i type="int" name="LMAXPAW">  -100</i>
    <i type="int" name="LMAXMIX">     2</i>
    <i type="logical" name="NLSPLINE"> F  </i>
   </separator>
   <separator name="electronic startup" >
    <i type="int" name="ISTART">     1</i>
    <i type="int" name="ICHARG">     0</i>
    <i type="int" name="INIWAV">     1</i>
   </separator>
   <separator name="electronic spin" >
    <i type="int" name="ISPIN">     1</i>
    <i type="logical" name="LNONCOLLINEAR"> F  </i>
    <v name="MAGMOM">      1.00000000      1.00000000      1.00000000      1.00000000      1.00000000      1.00000000      1.00000000      1.00000000      1.00000000      1.00000000      1.00000000      1.00000000      1.00000000      1.00000000      1.00000000      1.00000000      1.00000000      1.00000000      1.00000000      1.00000000
      1.00000000      1.00000000      1.00000000      1.00000000      1.00000000      1.00000000      1.00000000      1.00000000      1.00000000      1.00000000      1.00000000      1.00000000      1.00000000      1.00000000      1.00000000      1.00000000      1.00000000      1.00000000      1.00000000      1.00000000
      1.00000000      1.00000000      1.00000000      1.00000000      1.00000000      1.00000000      1.00000000      1.00000000      1.00000000      1.00000000      1.00000000      1.00000000      1.00000000      1.00000000      1.00000000      1.00000000      1.00000000      1.00000000      1.00000000      1.00000000
      1.00000000      1.00000000      1.00000000      1.00000000      1.00000000      1.00000000      1.00000000      1.00000000      1.00000000      1.00000000      1.00000000      1.00000000      1.00000000      1.00000000      1.00000000      1.00000000      1.00000000      1.00000000      1.00000000      1.00000000
      1.00000000      1.00000000      1.00000000      1.00000000      1.00000000      1.00000000      1.00000000      1.00000000      1.00000000      1.00000000      1.00000000      1.00000000      1.00000000      1.00000000      1.00000000      1.00000000      1.00000000      1.00000000      1.00000000      1.00000000
      1.00000000      1.00000000      1.00000000      1.00000000      1.00000000      1.00000000      1.00000000      1.00000000      1.00000000      1.00000000      1.00000000      1.00000000      1.00000000      1.00000000      1.00000000      1.00000000      1.00000000      1.00000000      1.00000000      1.00000000
      1.00000000      1.00000000      1.00000000      1.00000000      1.00000000      1.00000000      1.00000000      1.00000000      1.00000000      1.00000000      1.00000000      1.00000000      1.00000000      1.00000000      1.00000000      1.00000000      1.00000000      1.00000000      1.00000000      1.00000000
      1.00000000      1.00000000      1.00000000      1.00000000      1.00000000      1.00000000      1.00000000      1.00000000      1.00000000      1.00000000      1.00000000      1.00000000      1.00000000      1.00000000      1.00000000      1.00000000      1.00000000      1.00000000      1.00000000      1.00000000
      1.00000000      1.00000000      1.00000000      1.00000000      1.00000000      1.00000000      1.00000000      1.00000000      1.00000000      1.00000000      1.00000000      1.00000000      1.00000000      1.00000000      1.00000000      1.00000000      1.00000000      1.00000000      1.00000000      1.00000000
      1.00000000      1.00000000      1.00000000      1.00000000      1.00000000      1.00000000      1.00000000      1.00000000      1.00000000      1.00000000      1.00000000      1.00000000      1.00000000      1.00000000      1.00000000      1.00000000      1.00000000      1.00000000      1.00000000      1.00000000
      1.00000000      1.00000000      1.00000000      1.00000000      1.00000000      1.00000000      1.00000000      1.00000000      1.00000000      1.00000000      1.00000000      1.00000000      1.00000000      1.00000000      1.00000000      1.00000000      1.00000000      1.00000000      1.00000000      1.00000000
      1.00000000      1.00000000      1.00000000      1.00000000      1.00000000      1.00000000      1.00000000      1.00000000      1.00000000      1.00000000      1.00000000      1.00000000      1.00000000      1.00000000      1.00000000      1.00000000      1.00000000      1.00000000      1.00000000      1.00000000
</v>
    <i name="NUPDOWN">     -1.00000000</i>
    <i type="logical" name="LSORBIT"> F  </i>
    <v name="SAXIS">      0.00000000      0.00000000      1.00000000</v>
    <i type="logical" name="LSPIRAL"> F  </i>
    <v name="QSPIRAL">      0.00000000      0.00000000      0.00000000</v>
    <i type="logical" name="LZEROZ"> F  </i>
   </separator>
   <separator name="electronic exchange-correlation" >
    <i type="logical" name="LASPH"> F  </i>
    <i type="logical" name="LMETAGGA"> F  </i>
   </separator>
   <separator name="electronic convergence" >
    <i type="int" name="NELM">    60</i>
    <i type="int" name="NELMDL">     0</i>
    <i type="int" name="NELMIN">     2</i>
    <i name="ENINI">    240.95700000</i>
    <separator name="electronic convergence detail" >
     <i type="logical" name="LDIAG"> T  </i>
     <i type="logical" name="LSUBROT"> F  </i>
     <i name="WEIMIN">      0.00000000</i>
     <i name="EBREAK">      0.00000005</i>
     <i name="DEPER">      0.30000000</i>
     <i type="int" name="NRMM">     4</i>
     <i name="TIME">      0.40000000</i>
    </separator>
   </separator>
   <separator name="electronic mixer" >
    <i name="AMIX">      0.40000000</i>
    <i name="BMIX">      1.00000000</i>
    <i name="AMIN">      0.10000000</i>
    <i name="AMIX_MAG">      1.60000000</i>
    <i name="BMIX_MAG">      1.00000000</i>
    <separator name="electronic mixer details" >
     <i type="int" name="IMIX">     4</i>
     <i type="logical" name="MIXFIRST"> F  </i>
     <i type="int" name="MAXMIX">   -45</i>
     <i name="WC">    100.00000000</i>
     <i type="int" name="INIMIX">     1</i>
     <i type="int" name="MIXPRE">     1</i>
     <i type="int" name="MREMOVE">     5</i>
    </separator>
   </separator>
   <separator name="electronic dipolcorrection" >
    <i type="logical" name="LDIPOL"> F  </i>
    <i type="logical" name="LMONO"> F  </i>
    <i type="int" name="IDIPOL">     0</i>
    <i name="EPSILON">      1.00000000</i>
    <v name="DIPOL">   -100.00000000   -100.00000000   -100.00000000</v>
    <i name="EFIELD">      0.00000000</i>
   </separator>
  </separator>
  <separator name="grids" >
   <i type="int" name="NGX">    48</i>
   <i type="int" name="NGY">    70</i>
   <i type="int" name="NGZ">   224</i>
   <i type="int" name="NGXF">    96</i>
   <i type="int" name="NGYF">   140</i>
   <i type="int" name="NGZF">   448</i>
   <i type="logical" name="ADDGRID"> F  </i>
  </separator>
  <separator name="ionic" >
   <i type="int" name="NSW">     0</i>
   <i type="int" name="IBRION">    -1</i>
   <i type="int" name="MDALGO">     0</i>
   <i type="int" name="ISIF">     2</i>
   <i name="PSTRESS">      0.00000000</i>
   <i name="EDIFFG">      0.00100000</i>
   <i type="int" name="NFREE">     0</i>
   <i name="POTIM">      0.50000000</i>
   <i name="SMASS">     -3.00000000</i>
   <i name="SCALEE">      1.00000000</i>
  </separator>
  <separator name="ionic md" >
   <i name="TEBEG">      0.00010000</i>
   <i name="TEEND">      0.00010000</i>
   <i type="int" name="NBLOCK">     1</i>
   <i type="int" name="KBLOCK">     1</i>
   <i type="int" name="NPACO">   256</i>
   <i name="APACO">     16.00000000</i>
  </separator>
  <separator name="symmetry" >
   <i type="int" name="ISYM">     2</i>
   <i name="SYMPREC">      0.00001000</i>
  </separator>
  <separator name="dos" >
   <i type="int" name="LORBIT">     0</i>
   <v name="RWIGS">     -1.00000000</v>
   <i type="int" name="NEDOS">   301</i>
   <i name="EMIN">     10.00000000</i>
   <i name="EMAX">    -10.00000000</i>
   <i name="EFERMI">      0.00000000</i>
  </separator>
  <separator name="writing" >
   <i type="int" name="NWRITE">     2</i>
   <i type="logical" name="LWAVE"> T  </i>
   <i type="logical" name="LDOWNSAMPLE"> F  </i>
   <i type="logical" name="LCHARG"> T  </i>
   <i type="logical" name="LPARD"> F  </i>
   <i type="logical" name="LVTOT"> F  </i>
   <i type="logical" name="LVHAR"> F  </i>
   <i type="logical" name="LELF"> F  </i>
   <i type="logical" name="LOPTICS"> F  </i>
   <v name="STM">      0.00000000      0.00000000      0.00000000      0.00000000      0.00000000      0.00000000      0.00000000</v>
  </separator>
  <separator name="performance" >
   <i type="int" name="NPAR">    16</i>
   <i type="int" name="NSIM">     4</i>
   <i type="int" name="NBLK">    -1</i>
   <i type="logical" name="LPLANE"> T  </i>
   <i type="logical" name="LSCALAPACK"> T  </i>
   <i type="logical" name="LSCAAWARE"> F  </i>
   <i type="logical" name="LSCALU"> F  </i>
   <i type="logical" name="LASYNC"> F  </i>
   <i type="logical" name="LORBITALREAL"> F  </i>
  </separator>
  <separator name="miscellaneous" >
   <i type="int" name="IDIOT">     3</i>
   <i type="int" name="ISPECIAL">     0</i>
   <i type="logical" name="LMUSIC"> F  </i>
   <v name="POMASS">     26.98100000</v>
   <v name="DARWINR">      0.00000000</v>
   <v name="DARWINV">      1.00000000</v>
   <i type="logical" name="LCORR"> T  </i>
  </separator>
  <i type="logical" name="GGA_COMPAT"> T  </i>
  <i type="logical" name="LBERRY"> F  </i>
  <i type="int" name="ICORELEVEL">     0</i>
  <i type="logical" name="LDAU"> F  </i>
  <i type="int" name="I_CONSTRAINED_M">     0</i>
  <separator name="electronic exchange-correlation" >
   <i type="string" name="GGA">--</i>
   <i type="int" name="VOSKOWN">     0</i>
   <i type="logical" name="LHFCALC"> F  </i>
   <i type="string" name="PRECFOCK"></i>
   <i type="logical" name="LSYMGRAD"> F  </i>
   <i type="logical" name="LHFONE"> F  </i>
   <i type="logical" name="LRHFCALC"> F  </i>
   <i type="logical" name="LTHOMAS"> F  </i>
   <i type="logical" name="LMODELHF"> F  </i>
   <i name="ENCUT4O">     -1.00000000</i>
   <i type="int" name="EXXOEP">     0</i>
   <i type="int" name="FOURORBIT">     0</i>
   <i name="AEXX">      0.00000000</i>
   <i name="HFALPHA">      0.00000000</i>
   <i name="MCALPHA">      0.00000000</i>
   <i name="ALDAX">      1.00000000</i>
   <i name="AGGAX">      1.00000000</i>
   <i name="ALDAC">      1.00000000</i>
   <i name="AGGAC">      1.00000000</i>
   <i type="int" name="NKREDX">     1</i>
   <i type="int" name="NKREDY">     1</i>
   <i type="int" name="NKREDZ">     1</i>
   <i type="logical" name="SHIFTRED"> F  </i>
   <i type="logical" name="ODDONLY"> F  </i>
   <i type="logical" name="EVENONLY"> F  </i>
   <i type="int" name="LMAXFOCK">     0</i>
   <i type="int" name="NMAXFOCKAE">     0</i>
   <i type="logical" name="LFOCKAEDFT"> F  </i>
   <i name="HFSCREEN">      0.00000000</i>
   <i name="HFSCREENC">      0.00000000</i>
   <i type="int" name="NBANDSGWLOW">     0</i>
  </separator>
  <separator name="vdW DFT" >
   <i type="logical" name="LUSE_VDW"> F  </i>
   <i name="Zab_VDW">     -0.84910000</i>
   <i name="PARAM1">      0.12340000</i>
   <i name="PARAM2">      1.00000000</i>
   <i name="PARAM3">      0.00000000</i>
  </separator>
  <separator name="model GW" >
   <i type="int" name="MODEL_GW">     0</i>
   <i name="MODEL_EPS0">     28.65106688</i>
   <i name="MODEL_ALPHA">      1.00000000</i>
  </separator>
  <separator name="linear response parameters" >
   <i type="logical" name="LEPSILON"> F  </i>
   <i type="logical" name="LRPA"> F  </i>
   <i type="logical" name="LNABLA"> F  </i>
   <i type="logical" name="LVEL"> F  </i>
   <i type="int" name="KINTER">     0</i>
   <i name="CSHIFT">      0.10000000</i>
   <i name="OMEGAMAX">     -1.00000000</i>
   <i name="DEG_THRESHOLD">      0.00200000</i>
   <i name="RTIME">     -0.10000000</i>
   <i name="WPLASMAI">      0.00000000</i>
   <v name="DFIELD">      0.00000000      0.00000000      0.00000000</v>
   <v name="WPLASMA">      0.00000000      0.00000000      0.00000000      0.00000000      0.00000000      0.00000000      0.00000000      0.00000000      0.00000000</v>
  </separator>
  <separator name="orbital magnetization" >
   <i type="logical" name="NUCIND"> F  </i>
   <v name="MAGPOS">      0.00000000      0.00000000      0.00000000</v>
   <i type="logical" name="LNICSALL"> T  </i>
   <i type="logical" name="ORBITALMAG"> F  </i>
   <i type="logical" name="LMAGBLOCH"> F  </i>
   <i type="logical" name="LCHIMAG"> F  </i>
   <i type="logical" name="LGAUGE"> T  </i>
   <i type="int" name="MAGATOM">     0</i>
   <v name="MAGDIPOL">      0.00000000      0.00000000      0.00000000</v>
   <v name="AVECCONST">      0.00000000      0.00000000      0.00000000</v>
  </separator>
  <separator name="response functions" >
   <i type="logical" name="LADDER"> F  </i>
   <i type="logical" name="LRPAFORCE"> F  </i>
   <i type="logical" name="LFXC"> F  </i>
   <i type="logical" name="LHARTREE"> T  </i>
   <i type="int" name="IBSE">     0</i>
   <v type="int" name="KPOINT">    -1     0     0     0</v>
   <i type="logical" name="LTCTE"> F  </i>
   <i type="logical" name="LTETE"> F  </i>
   <i type="logical" name="LTRIPLET"> F  </i>
   <i type="logical" name="LFXCEPS"> F  </i>
   <i type="logical" name="LFXHEG"> F  </i>
   <i type="int" name="NATURALO">     2</i>
   <i type="logical" name="L2ORDER"> F  </i>
   <i type="logical" name="LMP2LT"> F  </i>
   <i type="logical" name="LUSEW"> F  </i>
   <i name="ENCUTGW">     -2.00000000</i>
   <i name="ENCUTGWSOFT">     -2.00000000</i>
   <i name="ENCUTLF">     -1.00000000</i>
   <i type="int" name="LMAXMP2">    -1</i>
   <i name="SCISSOR">      0.00000000</i>
   <i type="int" name="NOMEGA">     0</i>
   <i type="int" name="NOMEGAR">     0</i>
   <i type="int" name="NBANDSGW">    -1</i>
   <i type="int" name="NBANDSO">    -1</i>
   <i type="int" name="NBANDSV">    -1</i>
   <i type="int" name="NELM">     1</i>
   <i type="int" name="NELMHF">     1</i>
   <i type="int" name="DIM">     3</i>
   <i type="int" name="ANTIRES">     0</i>
   <i name="OMEGAMAX">    -30.00000000</i>
   <i name="OMEGAMIN">    -30.00000000</i>
   <i name="OMEGATL">   -200.00000000</i>
   <i type="int" name="OMEGAGRID">   140</i>
   <i name="CSHIFT">     -0.10000000</i>
   <i type="logical" name="SELFENERGY"> F  </i>
   <i type="logical" name="LSPECTRAL"> F  </i>
   <i type="logical" name="LSPECTRALGW"> F  </i>
   <i type="logical" name="LSINGLES"> F  </i>
   <i type="logical" name="LFERMIGW"> F  </i>
   <i type="logical" name="ODDONLYGW"> F  </i>
   <i type="logical" name="EVENONLYGW"> F  </i>
   <i type="int" name="NKREDLFX">     1</i>
   <i type="int" name="NKREDLFY">     1</i>
   <i type="int" name="NKREDLFZ">     1</i>
   <i type="int" name="MAXMEM">  2800</i>
   <i type="int" name="TELESCOPE">     0</i>
   <i type="int" name="TAUPAR">     1</i>
   <i type="int" name="OMEGAPAR">    -1</i>
   <i name="LAMBDA">      1.00000000</i>
  </separator>
  <separator name="External order field" >
   <i name="OFIELD_KAPPA">      0.00000000</i>
   <v name="OFIELD_K">      0.00000000      0.00000000      0.00000000</v>
   <i name="OFIELD_Q6_NEAR">      0.00000000</i>
   <i name="OFIELD_Q6_FAR">      0.00000000</i>
   <i name="OFIELD_A">      0.00000000</i>
  </separator>
 </parameters>
 <atominfo>
  <atoms>     240 </atoms>
  <types>       1 </types>
  <array name="atoms" >
   <dimension dim="1">ion</dimension>
   <field type="string">element</field>
   <field type="int">atomtype</field>
   <set>
    <rc><c>Al</c><c>   1</c></rc>
    <rc><c>Al</c><c>   1</c></rc>
    <rc><c>Al</c><c>   1</c></rc>
    <rc><c>Al</c><c>   1</c></rc>
    <rc><c>Al</c><c>   1</c></rc>
    <rc><c>Al</c><c>   1</c></rc>
    <rc><c>Al</c><c>   1</c></rc>
    <rc><c>Al</c><c>   1</c></rc>
    <rc><c>Al</c><c>   1</c></rc>
    <rc><c>Al</c><c>   1</c></rc>
    <rc><c>Al</c><c>   1</c></rc>
    <rc><c>Al</c><c>   1</c></rc>
    <rc><c>Al</c><c>   1</c></rc>
    <rc><c>Al</c><c>   1</c></rc>
    <rc><c>Al</c><c>   1</c></rc>
    <rc><c>Al</c><c>   1</c></rc>
    <rc><c>Al</c><c>   1</c></rc>
    <rc><c>Al</c><c>   1</c></rc>
    <rc><c>Al</c><c>   1</c></rc>
    <rc><c>Al</c><c>   1</c></rc>
    <rc><c>Al</c><c>   1</c></rc>
    <rc><c>Al</c><c>   1</c></rc>
    <rc><c>Al</c><c>   1</c></rc>
    <rc><c>Al</c><c>   1</c></rc>
    <rc><c>Al</c><c>   1</c></rc>
    <rc><c>Al</c><c>   1</c></rc>
    <rc><c>Al</c><c>   1</c></rc>
    <rc><c>Al</c><c>   1</c></rc>
    <rc><c>Al</c><c>   1</c></rc>
    <rc><c>Al</c><c>   1</c></rc>
    <rc><c>Al</c><c>   1</c></rc>
    <rc><c>Al</c><c>   1</c></rc>
    <rc><c>Al</c><c>   1</c></rc>
    <rc><c>Al</c><c>   1</c></rc>
    <rc><c>Al</c><c>   1</c></rc>
    <rc><c>Al</c><c>   1</c></rc>
    <rc><c>Al</c><c>   1</c></rc>
    <rc><c>Al</c><c>   1</c></rc>
    <rc><c>Al</c><c>   1</c></rc>
    <rc><c>Al</c><c>   1</c></rc>
    <rc><c>Al</c><c>   1</c></rc>
    <rc><c>Al</c><c>   1</c></rc>
    <rc><c>Al</c><c>   1</c></rc>
    <rc><c>Al</c><c>   1</c></rc>
    <rc><c>Al</c><c>   1</c></rc>
    <rc><c>Al</c><c>   1</c></rc>
    <rc><c>Al</c><c>   1</c></rc>
    <rc><c>Al</c><c>   1</c></rc>
    <rc><c>Al</c><c>   1</c></rc>
    <rc><c>Al</c><c>   1</c></rc>
    <rc><c>Al</c><c>   1</c></rc>
    <rc><c>Al</c><c>   1</c></rc>
    <rc><c>Al</c><c>   1</c></rc>
    <rc><c>Al</c><c>   1</c></rc>
    <rc><c>Al</c><c>   1</c></rc>
    <rc><c>Al</c><c>   1</c></rc>
    <rc><c>Al</c><c>   1</c></rc>
    <rc><c>Al</c><c>   1</c></rc>
    <rc><c>Al</c><c>   1</c></rc>
    <rc><c>Al</c><c>   1</c></rc>
    <rc><c>Al</c><c>   1</c></rc>
    <rc><c>Al</c><c>   1</c></rc>
    <rc><c>Al</c><c>   1</c></rc>
    <rc><c>Al</c><c>   1</c></rc>
    <rc><c>Al</c><c>   1</c></rc>
    <rc><c>Al</c><c>   1</c></rc>
    <rc><c>Al</c><c>   1</c></rc>
    <rc><c>Al</c><c>   1</c></rc>
    <rc><c>Al</c><c>   1</c></rc>
    <rc><c>Al</c><c>   1</c></rc>
    <rc><c>Al</c><c>   1</c></rc>
    <rc><c>Al</c><c>   1</c></rc>
    <rc><c>Al</c><c>   1</c></rc>
    <rc><c>Al</c><c>   1</c></rc>
    <rc><c>Al</c><c>   1</c></rc>
    <rc><c>Al</c><c>   1</c></rc>
    <rc><c>Al</c><c>   1</c></rc>
    <rc><c>Al</c><c>   1</c></rc>
    <rc><c>Al</c><c>   1</c></rc>
    <rc><c>Al</c><c>   1</c></rc>
    <rc><c>Al</c><c>   1</c></rc>
    <rc><c>Al</c><c>   1</c></rc>
    <rc><c>Al</c><c>   1</c></rc>
    <rc><c>Al</c><c>   1</c></rc>
    <rc><c>Al</c><c>   1</c></rc>
    <rc><c>Al</c><c>   1</c></rc>
    <rc><c>Al</c><c>   1</c></rc>
    <rc><c>Al</c><c>   1</c></rc>
    <rc><c>Al</c><c>   1</c></rc>
    <rc><c>Al</c><c>   1</c></rc>
    <rc><c>Al</c><c>   1</c></rc>
    <rc><c>Al</c><c>   1</c></rc>
    <rc><c>Al</c><c>   1</c></rc>
    <rc><c>Al</c><c>   1</c></rc>
    <rc><c>Al</c><c>   1</c></rc>
    <rc><c>Al</c><c>   1</c></rc>
    <rc><c>Al</c><c>   1</c></rc>
    <rc><c>Al</c><c>   1</c></rc>
    <rc><c>Al</c><c>   1</c></rc>
    <rc><c>Al</c><c>   1</c></rc>
    <rc><c>Al</c><c>   1</c></rc>
    <rc><c>Al</c><c>   1</c></rc>
    <rc><c>Al</c><c>   1</c></rc>
    <rc><c>Al</c><c>   1</c></rc>
    <rc><c>Al</c><c>   1</c></rc>
    <rc><c>Al</c><c>   1</c></rc>
    <rc><c>Al</c><c>   1</c></rc>
    <rc><c>Al</c><c>   1</c></rc>
    <rc><c>Al</c><c>   1</c></rc>
    <rc><c>Al</c><c>   1</c></rc>
    <rc><c>Al</c><c>   1</c></rc>
    <rc><c>Al</c><c>   1</c></rc>
    <rc><c>Al</c><c>   1</c></rc>
    <rc><c>Al</c><c>   1</c></rc>
    <rc><c>Al</c><c>   1</c></rc>
    <rc><c>Al</c><c>   1</c></rc>
    <rc><c>Al</c><c>   1</c></rc>
    <rc><c>Al</c><c>   1</c></rc>
    <rc><c>Al</c><c>   1</c></rc>
    <rc><c>Al</c><c>   1</c></rc>
    <rc><c>Al</c><c>   1</c></rc>
    <rc><c>Al</c><c>   1</c></rc>
    <rc><c>Al</c><c>   1</c></rc>
    <rc><c>Al</c><c>   1</c></rc>
    <rc><c>Al</c><c>   1</c></rc>
    <rc><c>Al</c><c>   1</c></rc>
    <rc><c>Al</c><c>   1</c></rc>
    <rc><c>Al</c><c>   1</c></rc>
    <rc><c>Al</c><c>   1</c></rc>
    <rc><c>Al</c><c>   1</c></rc>
    <rc><c>Al</c><c>   1</c></rc>
    <rc><c>Al</c><c>   1</c></rc>
    <rc><c>Al</c><c>   1</c></rc>
    <rc><c>Al</c><c>   1</c></rc>
    <rc><c>Al</c><c>   1</c></rc>
    <rc><c>Al</c><c>   1</c></rc>
    <rc><c>Al</c><c>   1</c></rc>
    <rc><c>Al</c><c>   1</c></rc>
    <rc><c>Al</c><c>   1</c></rc>
    <rc><c>Al</c><c>   1</c></rc>
    <rc><c>Al</c><c>   1</c></rc>
    <rc><c>Al</c><c>   1</c></rc>
    <rc><c>Al</c><c>   1</c></rc>
    <rc><c>Al</c><c>   1</c></rc>
    <rc><c>Al</c><c>   1</c></rc>
    <rc><c>Al</c><c>   1</c></rc>
    <rc><c>Al</c><c>   1</c></rc>
    <rc><c>Al</c><c>   1</c></rc>
    <rc><c>Al</c><c>   1</c></rc>
    <rc><c>Al</c><c>   1</c></rc>
    <rc><c>Al</c><c>   1</c></rc>
    <rc><c>Al</c><c>   1</c></rc>
    <rc><c>Al</c><c>   1</c></rc>
    <rc><c>Al</c><c>   1</c></rc>
    <rc><c>Al</c><c>   1</c></rc>
    <rc><c>Al</c><c>   1</c></rc>
    <rc><c>Al</c><c>   1</c></rc>
    <rc><c>Al</c><c>   1</c></rc>
    <rc><c>Al</c><c>   1</c></rc>
    <rc><c>Al</c><c>   1</c></rc>
    <rc><c>Al</c><c>   1</c></rc>
    <rc><c>Al</c><c>   1</c></rc>
    <rc><c>Al</c><c>   1</c></rc>
    <rc><c>Al</c><c>   1</c></rc>
    <rc><c>Al</c><c>   1</c></rc>
    <rc><c>Al</c><c>   1</c></rc>
    <rc><c>Al</c><c>   1</c></rc>
    <rc><c>Al</c><c>   1</c></rc>
    <rc><c>Al</c><c>   1</c></rc>
    <rc><c>Al</c><c>   1</c></rc>
    <rc><c>Al</c><c>   1</c></rc>
    <rc><c>Al</c><c>   1</c></rc>
    <rc><c>Al</c><c>   1</c></rc>
    <rc><c>Al</c><c>   1</c></rc>
    <rc><c>Al</c><c>   1</c></rc>
    <rc><c>Al</c><c>   1</c></rc>
    <rc><c>Al</c><c>   1</c></rc>
    <rc><c>Al</c><c>   1</c></rc>
    <rc><c>Al</c><c>   1</c></rc>
    <rc><c>Al</c><c>   1</c></rc>
    <rc><c>Al</c><c>   1</c></rc>
    <rc><c>Al</c><c>   1</c></rc>
    <rc><c>Al</c><c>   1</c></rc>
    <rc><c>Al</c><c>   1</c></rc>
    <rc><c>Al</c><c>   1</c></rc>
    <rc><c>Al</c><c>   1</c></rc>
    <rc><c>Al</c><c>   1</c></rc>
    <rc><c>Al</c><c>   1</c></rc>
    <rc><c>Al</c><c>   1</c></rc>
    <rc><c>Al</c><c>   1</c></rc>
    <rc><c>Al</c><c>   1</c></rc>
    <rc><c>Al</c><c>   1</c></rc>
    <rc><c>Al</c><c>   1</c></rc>
    <rc><c>Al</c><c>   1</c></rc>
    <rc><c>Al</c><c>   1</c></rc>
    <rc><c>Al</c><c>   1</c></rc>
    <rc><c>Al</c><c>   1</c></rc>
    <rc><c>Al</c><c>   1</c></rc>
    <rc><c>Al</c><c>   1</c></rc>
    <rc><c>Al</c><c>   1</c></rc>
    <rc><c>Al</c><c>   1</c></rc>
    <rc><c>Al</c><c>   1</c></rc>
    <rc><c>Al</c><c>   1</c></rc>
    <rc><c>Al</c><c>   1</c></rc>
    <rc><c>Al</c><c>   1</c></rc>
    <rc><c>Al</c><c>   1</c></rc>
    <rc><c>Al</c><c>   1</c></rc>
    <rc><c>Al</c><c>   1</c></rc>
    <rc><c>Al</c><c>   1</c></rc>
    <rc><c>Al</c><c>   1</c></rc>
    <rc><c>Al</c><c>   1</c></rc>
    <rc><c>Al</c><c>   1</c></rc>
    <rc><c>Al</c><c>   1</c></rc>
    <rc><c>Al</c><c>   1</c></rc>
    <rc><c>Al</c><c>   1</c></rc>
    <rc><c>Al</c><c>   1</c></rc>
    <rc><c>Al</c><c>   1</c></rc>
    <rc><c>Al</c><c>   1</c></rc>
    <rc><c>Al</c><c>   1</c></rc>
    <rc><c>Al</c><c>   1</c></rc>
    <rc><c>Al</c><c>   1</c></rc>
    <rc><c>Al</c><c>   1</c></rc>
    <rc><c>Al</c><c>   1</c></rc>
    <rc><c>Al</c><c>   1</c></rc>
    <rc><c>Al</c><c>   1</c></rc>
    <rc><c>Al</c><c>   1</c></rc>
    <rc><c>Al</c><c>   1</c></rc>
    <rc><c>Al</c><c>   1</c></rc>
    <rc><c>Al</c><c>   1</c></rc>
    <rc><c>Al</c><c>   1</c></rc>
    <rc><c>Al</c><c>   1</c></rc>
    <rc><c>Al</c><c>   1</c></rc>
    <rc><c>Al</c><c>   1</c></rc>
    <rc><c>Al</c><c>   1</c></rc>
    <rc><c>Al</c><c>   1</c></rc>
    <rc><c>Al</c><c>   1</c></rc>
    <rc><c>Al</c><c>   1</c></rc>
    <rc><c>Al</c><c>   1</c></rc>
    <rc><c>Al</c><c>   1</c></rc>
    <rc><c>Al</c><c>   1</c></rc>
   </set>
  </array>
  <array name="atomtypes" >
   <dimension dim="1">type</dimension>
   <field type="int">atomspertype</field>
   <field type="string">element</field>
   <field>mass</field>
   <field>valence</field>
   <field type="string">pseudopotential</field>
   <set>
    <rc><c> 240</c><c>Al</c><c>     26.98100000</c><c>      3.00000000</c><c>  PAW Al 17Apr2000                      </c></rc>
   </set>
  </array>
 </atominfo>
 <structure name="initialpos" >
  <crystal>
   <varray name="basis" >
    <v>      11.45512986       0.00000000       0.00000000 </v>
    <v>       0.00000000      17.18269478       0.00000000 </v>
    <v>       0.00000000       0.00000000      58.22500000 </v>
   </varray>
   <i name="volume">  11460.42675000 </i>
   <varray name="rec_basis" >
    <v>       0.08729713       0.00000000       0.00000000 </v>
    <v>       0.00000000       0.05819809       0.00000000 </v>
    <v>       0.00000000       0.00000000       0.01717475 </v>
   </varray>
  </crystal>
  <varray name="positions" >
   <v>       0.11434577       0.07504146       0.34494810 </v>
   <v>       0.35836430       0.08171529       0.34010930 </v>
   <v>       0.61498723       0.08293679       0.34643058 </v>
   <v>       0.86713266       0.08465698       0.34114950 </v>
   <v>       0.11028207       0.25117364       0.34321668 </v>
   <v>       0.37418082       0.25202437       0.34434707 </v>
   <v>       0.61486480       0.24897553       0.34336473 </v>
   <v>       0.87239116       0.25249097       0.34510661 </v>
   <v>       0.11441737       0.42207930       0.34251722 </v>
   <v>       0.36798048       0.41627038       0.34193385 </v>
   <v>       0.60981803       0.41255599       0.34298500 </v>
   <v>       0.86258534       0.41421591       0.34291291 </v>
   <v>       0.11579782       0.58987217       0.34241923 </v>
   <v>       0.35326606       0.58228167       0.34240624 </v>
   <v>       0.61135759       0.58736464       0.34197994 </v>
   <v>       0.85841324       0.58808394       0.34317463 </v>
   <v>       0.11473034       0.75284008       0.34323061 </v>
   <v>       0.35574316       0.74144235       0.34379351 </v>
   <v>       0.61686728       0.74619622       0.34298313 </v>
   <v>       0.85739336       0.75482669       0.34244535 </v>
   <v>       0.11018339       0.90955403       0.34276074 </v>
   <v>       0.36571094       0.90831643       0.34430388 </v>
   <v>       0.61670082       0.91346554       0.34286791 </v>
   <v>       0.86092750       0.92007106       0.34261957 </v>
   <v>       0.99911516       0.99857426       0.37978935 </v>
   <v>       0.25253800       0.00008051       0.37872852 </v>
   <v>       0.48809684       0.99794845       0.37930064 </v>
   <v>       0.74837002       0.00009445       0.37977879 </v>
   <v>       0.99350991       0.16294071       0.37872052 </v>
   <v>       0.24926801       0.16980061       0.37675011 </v>
   <v>       0.49321664       0.16538679       0.37907057 </v>
   <v>       0.74585826       0.16616689       0.37884809 </v>
   <v>       0.00101398       0.32854136       0.38009475 </v>
   <v>       0.24719289       0.33646544       0.37629010 </v>
   <v>       0.49745997       0.33922110       0.38001576 </v>
   <v>       0.73980798       0.33440166       0.37873708 </v>
   <v>       0.99444011       0.49239183       0.37961722 </v>
   <v>       0.25427439       0.50063335       0.37790041 </v>
   <v>       0.48605567       0.50147708       0.37636322 </v>
   <v>       0.74439907       0.50330654       0.37765146 </v>
   <v>       0.99159600       0.65990349       0.37796313 </v>
   <v>       0.24324135       0.66411389       0.37892051 </v>
   <v>       0.49073740       0.66261471       0.37623218 </v>
   <v>       0.74299574       0.66752240       0.37768263 </v>
   <v>       0.99003849       0.83208601       0.37935482 </v>
   <v>       0.24232427       0.83207866       0.37842145 </v>
   <v>       0.48976065       0.82870195       0.37833726 </v>
   <v>       0.73277764       0.83466857       0.37688858 </v>
   <v>       0.11272448       0.08247620       0.41237077 </v>
   <v>       0.36328844       0.08178153       0.41192724 </v>
   <v>       0.61365756       0.08953547       0.41179586 </v>
   <v>       0.86840682       0.08252415       0.41429646 </v>
   <v>       0.12250068       0.24660362       0.41258429 </v>
   <v>       0.37133153       0.25320038       0.41160687 </v>
   <v>       0.62578539       0.25223821       0.41223122 </v>
   <v>       0.85969776       0.24915759       0.41253981 </v>
   <v>       0.12635023       0.41201631       0.41226193 </v>
   <v>       0.35944845       0.41479985       0.41304861 </v>
   <v>       0.62064619       0.42084191       0.41162300 </v>
   <v>       0.86775809       0.41676075       0.41194617 </v>
   <v>       0.11569247       0.57689910       0.41176972 </v>
   <v>       0.37461611       0.58271732       0.41342385 </v>
   <v>       0.61631234       0.58062532       0.41110497 </v>
   <v>       0.86629907       0.58042973       0.41247260 </v>
   <v>       0.11703770       0.74989974       0.41291725 </v>
   <v>       0.37147094       0.74463630       0.41438869 </v>
   <v>       0.62454136       0.74830079       0.41335489 </v>
   <v>       0.87201853       0.74190892       0.41135776 </v>
   <v>       0.12184218       0.91358467       0.41183982 </v>
   <v>       0.37964080       0.91042852       0.41296457 </v>
   <v>       0.61815233       0.91659258       0.41246967 </v>
   <v>       0.87163312       0.91068606       0.41465837 </v>
   <v>       0.00077228       0.99951170       0.44994434 </v>
   <v>       0.24219447       0.99940144       0.44516808 </v>
   <v>       0.49502585       0.99971472       0.44834571 </v>
   <v>       0.73410597       0.00393065       0.44794121 </v>
   <v>       0.99494310       0.16879489       0.44682219 </v>
   <v>       0.25356516       0.17253592       0.44720090 </v>
   <v>       0.50658973       0.16705294       0.44901009 </v>
   <v>       0.74545764       0.17286877       0.44662099 </v>
   <v>       0.99329098       0.33376958       0.44602132 </v>
   <v>       0.24084456       0.33854310       0.44771864 </v>
   <v>       0.49427010       0.33015730       0.44700882 </v>
   <v>       0.74283414       0.33802298       0.44656282 </v>
   <v>       0.99575544       0.50109741       0.44629210 </v>
   <v>       0.24907286       0.49865785       0.44569392 </v>
   <v>       0.50023623       0.49915612       0.44558444 </v>
   <v>       0.74882499       0.50180367       0.44729533 </v>
   <v>       0.00120327       0.66527835       0.44673974 </v>
   <v>       0.25027456       0.66257475       0.44798181 </v>
   <v>       0.50484865       0.66307540       0.44794970 </v>
   <v>       0.76206707       0.66590786       0.44833651 </v>
   <v>       0.99589006       0.83165119       0.44756411 </v>
   <v>       0.24642475       0.83128448       0.44725481 </v>
   <v>       0.49682477       0.82858276       0.44874357 </v>
   <v>       0.75099033       0.83290208       0.44693792 </v>
   <v>       0.12296685       0.09170459       0.48418540 </v>
   <v>       0.37505052       0.08875534       0.48213672 </v>
   <v>       0.63273646       0.07851092       0.48403675 </v>
   <v>       0.87032105       0.08868681       0.48211383 </v>
   <v>       0.13660370       0.25585780       0.48271488 </v>
   <v>       0.37109398       0.25149750       0.48338004 </v>
   <v>       0.62419911       0.25349554       0.48415192 </v>
   <v>       0.86307467       0.26168552       0.48430993 </v>
   <v>       0.12273780       0.41322571       0.48218774 </v>
   <v>       0.37408032       0.42349371       0.48157926 </v>
   <v>       0.63016257       0.42089012       0.48129001 </v>
   <v>       0.87790088       0.41764236       0.48309228 </v>
   <v>       0.11721365       0.57543418       0.48290626 </v>
   <v>       0.37336020       0.58436044       0.48240053 </v>
   <v>       0.60949972       0.58870934       0.48152154 </v>
   <v>       0.86420428       0.58731954       0.48488471 </v>
   <v>       0.12401614       0.74467814       0.48121691 </v>
   <v>       0.37133578       0.75050050       0.48234983 </v>
   <v>       0.62401853       0.75093452       0.48275105 </v>
   <v>       0.87597545       0.75666104       0.48399408 </v>
   <v>       0.13398712       0.91475988       0.48272983 </v>
   <v>       0.36791411       0.91942388       0.48344209 </v>
   <v>       0.62040265       0.91530411       0.48235401 </v>
   <v>       0.87235740       0.91715388       0.48305346 </v>
   <v>       0.00027186       0.99820583       0.51663794 </v>
   <v>       0.24306969       0.99811791       0.51811948 </v>
   <v>       0.49378022       0.00103637       0.51635259 </v>
   <v>       0.74362324       0.99626295       0.51715957 </v>
   <v>       0.98125751       0.16305480       0.51525370 </v>
   <v>       0.23662574       0.17171048       0.51695916 </v>
   <v>       0.49638658       0.16331650       0.51514356 </v>
   <v>       0.73632808       0.17162743       0.51881260 </v>
   <v>       0.98664776       0.33403756       0.51859167 </v>
   <v>       0.24404419       0.33500845       0.51765317 </v>
   <v>       0.48705747       0.33529801       0.51806501 </v>
   <v>       0.74285766       0.33646341       0.51907783 </v>
   <v>       0.98224946       0.49731693       0.51719472 </v>
   <v>       0.23444749       0.50046140       0.51828187 </v>
   <v>       0.49354204       0.49922636       0.51771473 </v>
   <v>       0.73165236       0.50045296       0.51670034 </v>
   <v>       0.99468762       0.66524514       0.51741047 </v>
   <v>       0.23945217       0.66238022       0.51511575 </v>
   <v>       0.49343755       0.66485998       0.51622436 </v>
   <v>       0.72907255       0.66607296       0.51723668 </v>
   <v>       0.99900281       0.83153186       0.51654471 </v>
   <v>       0.24360288       0.82575143       0.51612173 </v>
   <v>       0.48807258       0.83640143       0.51686385 </v>
   <v>       0.74176658       0.83345820       0.51698466 </v>
   <v>       0.10811052       0.07947358       0.55177853 </v>
   <v>       0.36328101       0.08528722       0.55165037 </v>
   <v>       0.61407827       0.08448760       0.55075539 </v>
   <v>       0.87096347       0.08565056       0.55113890 </v>
   <v>       0.11490748       0.24781199       0.55115129 </v>
   <v>       0.36291284       0.24469402       0.55178873 </v>
   <v>       0.62630917       0.25015053       0.55312726 </v>
   <v>       0.85557185       0.25458819       0.55253791 </v>
   <v>       0.11685868       0.41137163       0.55226394 </v>
   <v>       0.36314396       0.42048879       0.55265143 </v>
   <v>       0.62276420       0.41895842       0.55184367 </v>
   <v>       0.87215998       0.41820216       0.55418984 </v>
   <v>       0.11433370       0.58254203       0.55372327 </v>
   <v>       0.37479302       0.57860652       0.55060667 </v>
   <v>       0.63141743       0.58131239       0.55305762 </v>
   <v>       0.86869977       0.57806504       0.55299513 </v>
   <v>       0.12200300       0.74766038       0.55074730 </v>
   <v>       0.36915214       0.74975663       0.54964423 </v>
   <v>       0.62101884       0.75210592       0.55201649 </v>
   <v>       0.86008594       0.74206254       0.55058865 </v>
   <v>       0.11758318       0.91644006       0.55208809 </v>
   <v>       0.36655825       0.91526832       0.55124206 </v>
   <v>       0.61586494       0.91772183       0.55217147 </v>
   <v>       0.87470041       0.91915655       0.54964189 </v>
   <v>       0.98874688       0.99748020       0.58525879 </v>
   <v>       0.24549278       0.99499688       0.58561998 </v>
   <v>       0.49536375       0.99687946       0.58729505 </v>
   <v>       0.75046411       0.99461592       0.58353249 </v>
   <v>       0.99263814       0.16428167       0.58630594 </v>
   <v>       0.24394104       0.15916055       0.58811494 </v>
   <v>       0.49835159       0.16450193       0.58514983 </v>
   <v>       0.74175058       0.16209084       0.58678819 </v>
   <v>       0.99057010       0.33731749       0.58757544 </v>
   <v>       0.25409960       0.33684541       0.58495005 </v>
   <v>       0.49638658       0.33234489       0.58582566 </v>
   <v>       0.75053254       0.33184155       0.58725012 </v>
   <v>       0.99009279       0.49908052       0.58890988 </v>
   <v>       0.24276688       0.49784762       0.58841649 </v>
   <v>       0.49759944       0.50140583       0.58557696 </v>
   <v>       0.73757391       0.49848983       0.58587031 </v>
   <v>       0.98150746       0.66831462       0.58937706 </v>
   <v>       0.25610866       0.66149245       0.58503954 </v>
   <v>       0.50095743       0.66454806       0.58788633 </v>
   <v>       0.74349176       0.66382472       0.58836885 </v>
   <v>       0.00140734       0.82756464       0.58539187 </v>
   <v>       0.25310272       0.82652489       0.58615281 </v>
   <v>       0.48691205       0.82618327       0.58591780 </v>
   <v>       0.74788289       0.83372847       0.58767759 </v>
   <v>       0.11810649       0.07861249       0.62094689 </v>
   <v>       0.36389333       0.07424254       0.62075462 </v>
   <v>       0.61426967       0.08574175       0.62076148 </v>
   <v>       0.86820500       0.08464192       0.61866987 </v>
   <v>       0.11996366       0.25691428       0.62105111 </v>
   <v>       0.36810308       0.24481823       0.62155157 </v>
   <v>       0.61641198       0.25880574       0.62186892 </v>
   <v>       0.87588029       0.24750779       0.61951274 </v>
   <v>       0.11974385       0.41581059       0.62141980 </v>
   <v>       0.37387334       0.40730726       0.62095995 </v>
   <v>       0.61980423       0.41200489       0.62252625 </v>
   <v>       0.86581628       0.41894204       0.62152203 </v>
   <v>       0.13050949       0.58840602       0.62044957 </v>
   <v>       0.37187026       0.57349371       0.62434459 </v>
   <v>       0.61353402       0.57547469       0.62225567 </v>
   <v>       0.86293010       0.58684790       0.62277610 </v>
   <v>       0.11975103       0.75082519       0.62006847 </v>
   <v>       0.37144288       0.74116203       0.62265141 </v>
   <v>       0.62421853       0.74303655       0.62119141 </v>
   <v>       0.87748845       0.74755990       0.62239889 </v>
   <v>       0.11694102       0.91121504       0.62040523 </v>
   <v>       0.36367124       0.90556704       0.62110696 </v>
   <v>       0.61686299       0.91454334       0.61997053 </v>
   <v>       0.86263461       0.91664351       0.62040227 </v>
   <v>       0.99911159       0.99615156       0.65681107 </v>
   <v>       0.24578054       0.99703077       0.65669666 </v>
   <v>       0.49484570       0.99699847       0.65403042 </v>
   <v>       0.73286039       0.00247025       0.65611257 </v>
   <v>       0.99218699       0.16507341       0.65556672 </v>
   <v>       0.24743378       0.15824978       0.65387277 </v>
   <v>       0.49508479       0.16131184       0.65314538 </v>
   <v>       0.74298774       0.16416180       0.65220447 </v>
   <v>       0.99581852       0.32583217       0.65701431 </v>
   <v>       0.23786489       0.33139889       0.65876572 </v>
   <v>       0.49838271       0.32795742       0.65830556 </v>
   <v>       0.75163177       0.33000610       0.65558398 </v>
   <v>       0.99838800       0.50186468       0.65479182 </v>
   <v>       0.23740695       0.49453097       0.65890587 </v>
   <v>       0.49609746       0.49536851       0.65697554 </v>
   <v>       0.74998281       0.49722412       0.65664504 </v>
   <v>       0.00246857       0.67001553       0.65471706 </v>
   <v>       0.24097351       0.67049074       0.65552615 </v>
   <v>       0.48921964       0.66520513       0.65700994 </v>
   <v>       0.74262418       0.66860987       0.65772425 </v>
   <v>       0.98628585       0.83221340       0.65605517 </v>
   <v>       0.24909146       0.82830517       0.65868225 </v>
   <v>       0.49914493       0.83015516       0.65339200 </v>
   <v>       0.74678978       0.83317333       0.65774678 </v>
  </varray>
 </structure>
 <calculation>
  <scstep>
   <time name="dav">   16.75   16.75</time>
   <time name="total">   17.08   17.09</time>
   <energy>
    <i name="alphaZ">    -17.01491454 </i>
    <i name="ewald"> 477201.51957219 </i>
    <i name="hartreedc">-489724.05049108 </i>
    <i name="XCdc">  -6101.57067815 </i>
    <i name="pawpsdc">  44051.96029423 </i>
    <i name="pawaedc"> -36605.43161404 </i>
    <i name="eentropy">     -0.03651993 </i>
    <i name="bandstr">  -2787.74479035 </i>
    <i name="atom">  12909.57480638 </i>
    <i name="e_fr_energy">  -1072.79433529 </i>
    <i name="e_wo_entrp">  -1072.75781536 </i>
    <i name="e_0_energy">  -1072.78216198 </i>
   </energy>
  </scstep>
  <scstep>
   <time name="dav">   21.65   21.64</time>
   <time name="total">   21.98   21.97</time>
   <energy>
    <i name="e_fr_energy">  -1377.52522962 </i>
    <i name="e_wo_entrp">  -1377.63036691 </i>
    <i name="e_0_energy">  -1377.56027539 </i>
   </energy>
  </scstep>
  <scstep>
   <time name="dav">   21.77   21.76</time>
   <time name="total">   22.10   22.09</time>
   <energy>
    <i name="e_fr_energy">  -1227.88587864 </i>
    <i name="e_wo_entrp">  -1227.81909645 </i>
    <i name="e_0_energy">  -1227.86361791 </i>
   </energy>
  </scstep>
  <scstep>
   <time name="dav">   20.48   20.47</time>
   <time name="total">   20.81   20.80</time>
   <energy>
    <i name="e_fr_energy">   -974.77016280 </i>
    <i name="e_wo_entrp">   -974.80413032 </i>
    <i name="e_0_energy">   -974.78148531 </i>
   </energy>
  </scstep>
  <scstep>
   <time name="dav">   19.26   19.26</time>
   <time name="total">   19.59   19.59</time>
   <energy>
    <i name="e_fr_energy">   -966.61514402 </i>
    <i name="e_wo_entrp">   -966.80177846 </i>
    <i name="e_0_energy">   -966.67735550 </i>
   </energy>
  </scstep>
  <scstep>
   <time name="dav">   18.33   18.32</time>
   <time name="total">   18.66   18.65</time>
   <energy>
    <i name="e_fr_energy">   -970.74896851 </i>
    <i name="e_wo_entrp">   -970.80786340 </i>
    <i name="e_0_energy">   -970.76860014 </i>
   </energy>
  </scstep>
  <scstep>
   <time name="dav">   16.95   16.95</time>
   <time name="total">   17.28   17.28</time>
   <energy>
    <i name="e_fr_energy">   -971.78498368 </i>
    <i name="e_wo_entrp">   -971.94164231 </i>
    <i name="e_0_energy">   -971.83720322 </i>
   </energy>
  </scstep>
  <scstep>
   <time name="dav">   17.69   17.68</time>
   <time name="total">   18.02   18.01</time>
   <energy>
    <i name="e_fr_energy">   -969.09230793 </i>
    <i name="e_wo_entrp">   -969.20455088 </i>
    <i name="e_0_energy">   -969.12972224 </i>
   </energy>
  </scstep>
  <scstep>
   <time name="dav">   17.40   17.39</time>
   <time name="total">   17.73   17.73</time>
   <energy>
    <i name="e_fr_energy">   -968.76974874 </i>
    <i name="e_wo_entrp">   -968.93245031 </i>
    <i name="e_0_energy">   -968.82398260 </i>
   </energy>
  </scstep>
  <scstep>
   <time name="dav">   18.61   18.60</time>
   <time name="total">   18.94   18.93</time>
   <energy>
    <i name="e_fr_energy">   -968.72550404 </i>
    <i name="e_wo_entrp">   -968.90349940 </i>
    <i name="e_0_energy">   -968.78483583 </i>
   </energy>
  </scstep>
  <scstep>
   <time name="dav">   18.98   18.98</time>
   <time name="total">   19.31   19.31</time>
   <energy>
    <i name="e_fr_energy">   -968.74354234 </i>
    <i name="e_wo_entrp">   -968.92141279 </i>
    <i name="e_0_energy">   -968.80283249 </i>
   </energy>
  </scstep>
  <scstep>
   <time name="dav">   17.80   17.79</time>
   <time name="total">   18.13   18.12</time>
   <energy>
    <i name="e_fr_energy">   -968.78039657 </i>
    <i name="e_wo_entrp">   -968.95742782 </i>
    <i name="e_0_energy">   -968.83940698 </i>
   </energy>
  </scstep>
  <scstep>
   <time name="dav">   17.40   17.40</time>
   <time name="total">   17.74   17.73</time>
   <energy>
    <i name="e_fr_energy">   -968.83184123 </i>
    <i name="e_wo_entrp">   -968.99795496 </i>
    <i name="e_0_energy">   -968.88721247 </i>
   </energy>
  </scstep>
  <scstep>
   <time name="dav">   17.58   17.57</time>
   <time name="total">   17.91   17.90</time>
   <energy>
    <i name="e_fr_energy">   -968.79547692 </i>
    <i name="e_wo_entrp">   -968.95277351 </i>
    <i name="e_0_energy">   -968.84790912 </i>
   </energy>
  </scstep>
  <scstep>
   <time name="dav">   17.59   17.58</time>
   <time name="total">   17.92   17.91</time>
   <energy>
    <i name="e_fr_energy">   -968.81466516 </i>
    <i name="e_wo_entrp">   -968.96177598 </i>
    <i name="e_0_energy">   -968.86370210 </i>
   </energy>
  </scstep>
  <scstep>
   <time name="dav">   17.20   17.19</time>
   <time name="total">   17.54   17.53</time>
   <energy>
    <i name="e_fr_energy">   -968.79653444 </i>
    <i name="e_wo_entrp">   -968.94516059 </i>
    <i name="e_0_energy">   -968.84607649 </i>
   </energy>
  </scstep>
  <scstep>
   <time name="dav">   18.75   18.75</time>
   <time name="total">   19.09   19.08</time>
   <energy>
    <i name="e_fr_energy">   -968.77989489 </i>
    <i name="e_wo_entrp">   -968.92969671 </i>
    <i name="e_0_energy">   -968.82982883 </i>
   </energy>
  </scstep>
  <scstep>
   <time name="dav">   18.35   18.35</time>
   <time name="total">   18.69   18.68</time>
   <energy>
    <i name="e_fr_energy">   -968.76346831 </i>
    <i name="e_wo_entrp">   -968.91486246 </i>
    <i name="e_0_energy">   -968.81393303 </i>
   </energy>
  </scstep>
  <scstep>
   <time name="dav">   17.38   17.38</time>
   <time name="total">   17.72   17.71</time>
   <energy>
    <i name="e_fr_energy">   -968.72944750 </i>
    <i name="e_wo_entrp">   -968.88472282 </i>
    <i name="e_0_energy">   -968.78120594 </i>
   </energy>
  </scstep>
  <scstep>
   <time name="dav">   18.97   18.97</time>
   <time name="total">   19.31   19.30</time>
   <energy>
    <i name="e_fr_energy">   -968.72396261 </i>
    <i name="e_wo_entrp">   -968.88107788 </i>
    <i name="e_0_energy">   -968.77633436 </i>
   </energy>
  </scstep>
  <scstep>
   <time name="dav">   18.08   18.08</time>
   <time name="total">   18.42   18.41</time>
   <energy>
    <i name="e_fr_energy">   -968.72310597 </i>
    <i name="e_wo_entrp">   -968.88106714 </i>
    <i name="e_0_energy">   -968.77575970 </i>
   </energy>
  </scstep>
  <scstep>
   <time name="dav">   18.15   18.15</time>
   <time name="total">   18.49   18.48</time>
   <energy>
    <i name="e_fr_energy">   -968.72212810 </i>
    <i name="e_wo_entrp">   -968.88104903 </i>
    <i name="e_0_energy">   -968.77510175 </i>
   </energy>
  </scstep>
  <scstep>
   <time name="dav">   17.60   17.59</time>
   <time name="total">   17.93   17.93</time>
   <energy>
    <i name="e_fr_energy">   -968.72177969 </i>
    <i name="e_wo_entrp">   -968.88175219 </i>
    <i name="e_0_energy">   -968.77510386 </i>
   </energy>
  </scstep>
  <scstep>
   <time name="dav">   16.80   16.79</time>
   <time name="total">   17.14   17.13</time>
   <energy>
    <i name="e_fr_energy">   -968.72176517 </i>
    <i name="e_wo_entrp">   -968.88288281 </i>
    <i name="e_0_energy">   -968.77547105 </i>
   </energy>
  </scstep>
  <scstep>
   <time name="dav">   18.70   18.70</time>
   <time name="total">   19.04   19.03</time>
   <energy>
    <i name="e_fr_energy">   -968.72227710 </i>
    <i name="e_wo_entrp">   -968.88412817 </i>
    <i name="e_0_energy">   -968.77622746 </i>
   </energy>
  </scstep>
  <scstep>
   <time name="dav">   14.16   14.15</time>
   <time name="total">   14.49   14.49</time>
   <energy>
    <i name="e_fr_energy">   -968.72289978 </i>
    <i name="e_wo_entrp">   -968.88502398 </i>
    <i name="e_0_energy">   -968.77694118 </i>
   </energy>
  </scstep>
  <scstep>
   <time name="dav">   14.65   14.64</time>
   <time name="total">   14.99   14.98</time>
   <energy>
    <i name="e_fr_energy">   -968.72353810 </i>
    <i name="e_wo_entrp">   -968.88612134 </i>
    <i name="e_0_energy">   -968.77773251 </i>
   </energy>
  </scstep>
  <scstep>
   <time name="dav">   13.88   13.87</time>
   <time name="total">   14.22   14.21</time>
   <energy>
    <i name="e_fr_energy">   -968.72481598 </i>
    <i name="e_wo_entrp">   -968.88780902 </i>
    <i name="e_0_energy">   -968.77914699 </i>
   </energy>
  </scstep>
  <scstep>
   <time name="dav">   12.75   12.75</time>
   <time name="total">   13.09   13.09</time>
   <energy>
    <i name="e_fr_energy">   -968.72532919 </i>
    <i name="e_wo_entrp">   -968.88849368 </i>
    <i name="e_0_energy">   -968.77971735 </i>
   </energy>
  </scstep>
  <scstep>
   <time name="dav">   11.23   11.23</time>
   <time name="total">   11.57   11.57</time>
   <energy>
    <i name="e_fr_energy">   -968.72565989 </i>
    <i name="e_wo_entrp">   -968.88875275 </i>
    <i name="e_0_energy">   -968.78002418 </i>
   </energy>
  </scstep>
  <scstep>
   <time name="dav">   11.59   11.59</time>
   <time name="total">   11.93   11.93</time>
   <energy>
    <i name="e_fr_energy">   -968.72588273 </i>
    <i name="e_wo_entrp">   -968.88881914 </i>
    <i name="e_0_energy">   -968.78019487 </i>
   </energy>
  </scstep>
  <scstep>
   <time name="dav">   10.62   10.62</time>
   <time name="total">   10.97   10.96</time>
   <energy>
    <i name="e_fr_energy">   -968.72600539 </i>
    <i name="e_wo_entrp">   -968.88886340 </i>
    <i name="e_0_energy">   -968.78029139 </i>
   </energy>
  </scstep>
  <scstep>
   <time name="dav">   10.44   10.44</time>
   <time name="total">   10.51   10.51</time>
   <energy>
    <i name="alphaZ">    -17.01491454 </i>
    <i name="ewald"> 477201.51957219 </i>
    <i name="hartreedc">-489217.64712074 </i>
    <i name="XCdc">  -6103.12877756 </i>
    <i name="pawpsdc">  40809.42212937 </i>
    <i name="pawaedc"> -33363.52554019 </i>
    <i name="eentropy">      0.16284671 </i>
    <i name="bandstr">  -3188.08910631 </i>
    <i name="atom">  12909.57480638 </i>
    <i name="e_fr_energy">   -968.72610469 </i>
    <i name="e_wo_entrp">   -968.88895140 </i>
    <i name="e_0_energy">   -968.78038693 </i>
   </energy>
  </scstep>
  <structure>
   <crystal>
    <varray name="basis" >
     <v>      11.45512986       0.00000000       0.00000000 </v>
     <v>       0.00000000      17.18269478       0.00000000 </v>
     <v>       0.00000000       0.00000000      58.22500000 </v>
    </varray>
    <i name="volume">  11460.42675000 </i>
    <varray name="rec_basis" >
     <v>       0.08729713       0.00000000       0.00000000 </v>
     <v>       0.00000000       0.05819809       0.00000000 </v>
     <v>       0.00000000       0.00000000       0.01717475 </v>
    </varray>
   </crystal>
   <varray name="positions" >
    <v>       0.11434577       0.07504146       0.34494810 </v>
    <v>       0.35836430       0.08171529       0.34010930 </v>
    <v>       0.61498723       0.08293679       0.34643058 </v>
    <v>       0.86713266       0.08465698       0.34114950 </v>
    <v>       0.11028207       0.25117364       0.34321668 </v>
    <v>       0.37418082       0.25202437       0.34434707 </v>
    <v>       0.61486480       0.24897553       0.34336473 </v>
    <v>       0.87239116       0.25249097       0.34510661 </v>
    <v>       0.11441737       0.42207930       0.34251722 </v>
    <v>       0.36798048       0.41627038       0.34193385 </v>
    <v>       0.60981803       0.41255599       0.34298500 </v>
    <v>       0.86258534       0.41421591       0.34291291 </v>
    <v>       0.11579782       0.58987217       0.34241923 </v>
    <v>       0.35326606       0.58228167       0.34240624 </v>
    <v>       0.61135759       0.58736464       0.34197994 </v>
    <v>       0.85841324       0.58808394       0.34317463 </v>
    <v>       0.11473034       0.75284008       0.34323061 </v>
    <v>       0.35574316       0.74144235       0.34379351 </v>
    <v>       0.61686728       0.74619622       0.34298313 </v>
    <v>       0.85739336       0.75482669       0.34244535 </v>
    <v>       0.11018339       0.90955403       0.34276074 </v>
    <v>       0.36571094       0.90831643       0.34430388 </v>
    <v>       0.61670082       0.91346554       0.34286791 </v>
    <v>       0.86092750       0.92007106       0.34261957 </v>
    <v>       0.99911516       0.99857426       0.37978935 </v>
    <v>       0.25253800       0.00008051       0.37872852 </v>
    <v>       0.48809684       0.99794845       0.37930064 </v>
    <v>       0.74837002       0.00009445       0.37977879 </v>
    <v>       0.99350991       0.16294071       0.37872052 </v>
    <v>       0.24926801       0.16980061       0.37675011 </v>
    <v>       0.49321664       0.16538679       0.37907057 </v>
    <v>       0.74585826       0.16616689       0.37884809 </v>
    <v>       0.00101398       0.32854136       0.38009475 </v>
    <v>       0.24719289       0.33646544       0.37629010 </v>
    <v>       0.49745997       0.33922110       0.38001576 </v>
    <v>       0.73980798       0.33440166       0.37873708 </v>
    <v>       0.99444011       0.49239183       0.37961722 </v>
    <v>       0.25427439       0.50063335       0.37790041 </v>
    <v>       0.48605567       0.50147708       0.37636322 </v>
    <v>       0.74439907       0.50330654       0.37765146 </v>
    <v>       0.99159600       0.65990349       0.37796313 </v>
    <v>       0.24324135       0.66411389       0.37892051 </v>
    <v>       0.49073740       0.66261471       0.37623218 </v>
    <v>       0.74299574       0.66752240       0.37768263 </v>
    <v>       0.99003849       0.83208601       0.37935482 </v>
    <v>       0.24232427       0.83207866       0.37842145 </v>
    <v>       0.48976065       0.82870195       0.37833726 </v>
    <v>       0.73277764       0.83466857       0.37688858 </v>
    <v>       0.11272448       0.08247620       0.41237077 </v>
    <v>       0.36328844       0.08178153       0.41192724 </v>
    <v>       0.61365756       0.08953547       0.41179586 </v>
    <v>       0.86840682       0.08252415       0.41429646 </v>
    <v>       0.12250068       0.24660362       0.41258429 </v>
    <v>       0.37133153       0.25320038       0.41160687 </v>
    <v>       0.62578539       0.25223821       0.41223122 </v>
    <v>       0.85969776       0.24915759       0.41253981 </v>
    <v>       0.12635023       0.41201631       0.41226193 </v>
[...]
       <r>    -0.6359   116.4089   675.8338 </r>
       <r>    -0.5779   122.4814   682.9430 </r>
       <r>    -0.5198   126.0352   690.2585 </r>
       <r>    -0.4618   124.4674   697.4830 </r>
       <r>    -0.4038   116.1000   704.2218 </r>
       <r>    -0.3457   102.4987   710.1712 </r>
       <r>    -0.2877    87.8412   715.2698 </r>
       <r>    -0.2296    76.8544   719.7306 </r>
       <r>    -0.1716    72.3231   723.9285 </r>
       <r>    -0.1135    73.0084   728.1662 </r>
       <r>    -0.0555    74.3674   732.4827 </r>
       <r>     0.0025    72.8670   736.7121 </r>
       <r>     0.0606    69.9986   740.7751 </r>
       <r>     0.1186    71.0706   744.9003 </r>
       <r>     0.1767    79.4142   749.5097 </r>
       <r>     0.2347    92.3980   754.8728 </r>
       <r>     0.2928   103.7078   760.8923 </r>
       <r>     0.3508   108.7251   767.2031 </r>
       <r>     0.4088   106.8425   773.4046 </r>
       <r>     0.4669    99.7582   779.1949 </r>
       <r>     0.5249    89.7365   784.4035 </r>
       <r>     0.5830    79.9422   789.0436 </r>
       <r>     0.6410    74.8292   793.3869 </r>
       <r>     0.6991    78.5135   797.9441 </r>
       <r>     0.7571    92.0708   803.2882 </r>
       <r>     0.8152   112.3717   809.8106 </r>
       <r>     0.8732   133.6365   817.5673 </r>
       <r>     0.9312   150.1070   826.2800 </r>
       <r>     0.9893   157.7106   835.4341 </r>
       <r>     1.0473   155.0116   844.4314 </r>
       <r>     1.1054   144.6635   852.8282 </r>
       <r>     1.1634   133.8385   860.5966 </r>
       <r>     1.2215   130.7913   868.1882 </r>
       <r>     1.2795   138.5442   876.2297 </r>
       <r>     1.3375   151.1699   885.0041 </r>
       <r>     1.3956   157.2317   894.1304 </r>
       <r>     1.4536   148.8450   902.7698 </r>
       <r>     1.5117   128.9432   910.2541 </r>
       <r>     1.5697   109.5497   916.6127 </r>
       <r>     1.6278   101.6418   922.5123 </r>
       <r>     1.6858   105.9391   928.6614 </r>
       <r>     1.7438   113.6640   935.2588 </r>
       <r>     1.8019   115.8980   941.9859 </r>
       <r>     1.8599   111.2929   948.4457 </r>
       <r>     1.9180   105.0547   954.5434 </r>
       <r>     1.9760   102.4597   960.4905 </r>
       <r>     2.0341   104.4073   966.5507 </r>
       <r>     2.0921   107.4804   972.7892 </r>
       <r>     2.1501   106.0450   978.9444 </r>
       <r>     2.2082    94.9679   984.4566 </r>
       <r>     2.2662    73.1036   988.6998 </r>
       <r>     2.3243    45.3429   991.3317 </r>
       <r>     2.3823    20.0875   992.4976 </r>
       <r>     2.4404     3.6091   992.7071 </r>
       <r>     2.4984    -3.3486   992.5127 </r>
       <r>     2.5564    -4.1574   992.2714 </r>
       <r>     2.6145    -2.7195   992.1136 </r>
       <r>     2.6725    -1.2897   992.0387 </r>
       <r>     2.7306    -0.4790   992.0109 </r>
       <r>     2.7886    -0.1438   992.0026 </r>
       <r>     2.8467    -0.0354   992.0005 </r>
       <r>     2.9047    -0.0072   992.0001 </r>
       <r>     2.9628    -0.0012   992.0000 </r>
       <r>     3.0208    -0.0002   992.0000 </r>
       <r>     3.0788    -0.0000   992.0000 </r>
       <r>     3.1369    -0.0000   992.0000 </r>
       <r>     3.1949    -0.0000   992.0000 </r>
       <r>     3.2530    -0.0000   992.0000 </r>
       <r>     3.3110    -0.0000   992.0000 </r>
       <r>     3.3691    -0.0000   992.0000 </r>
       <r>     3.4271    -0.0000   992.0000 </r>
       <r>     3.4851    -0.0000   992.0000 </r>
       <r>     3.5432     0.0000   992.0000 </r>
       <r>     3.6012     0.0000   992.0000 </r>
       <r>     3.6593     0.0000   992.0000 </r>
       <r>     3.7173     0.0000   992.0000 </r>
       <r>     3.7754     0.0000   992.0000 </r>
       <r>     3.8334     0.0000   992.0000 </r>
       <r>     3.8914     0.0000   992.0000 </r>
       <r>     3.9495     0.0000   992.0000 </r>
       <r>     4.0075     0.0000   992.0000 </r>
       <r>     4.0656     0.0000   992.0000 </r>
       <r>     4.1236     0.0000   992.0000 </r>
       <r>     4.1817     0.0000   992.0000 </r>
       <r>     4.2397     0.0000   992.0000 </r>
      </set>
     </set>
    </array>
   </total>
  </dos>
 </calculation>
 <structure name="finalpos" >
  <crystal>
   <varray name="basis" >
    <v>      11.45512986       0.00000000       0.00000000 </v>
    <v>       0.00000000      17.18269478       0.00000000 </v>
    <v>       0.00000000       0.00000000      58.22500000 </v>
   </varray>
   <i name="volume">  11460.42675000 </i>
   <varray name="rec_basis" >
    <v>       0.08729713       0.00000000       0.00000000 </v>
    <v>       0.00000000       0.05819809       0.00000000 </v>
    <v>       0.00000000       0.00000000       0.01717475 </v>
   </varray>
  </crystal>
  <varray name="positions" >
   <v>       0.11434577       0.07504146       0.34494810 </v>
   <v>       0.35836430       0.08171529       0.34010930 </v>
   <v>       0.61498723       0.08293679       0.34643058 </v>
   <v>       0.86713266       0.08465698       0.34114950 </v>
   <v>       0.11028207       0.25117364       0.34321668 </v>
   <v>       0.37418082       0.25202437       0.34434707 </v>
   <v>       0.61486480       0.24897553       0.34336473 </v>
   <v>       0.87239116       0.25249097       0.34510661 </v>
   <v>       0.11441737       0.42207930       0.34251722 </v>
   <v>       0.36798048       0.41627038       0.34193385 </v>
   <v>       0.60981803       0.41255599       0.34298500 </v>
   <v>       0.86258534       0.41421591       0.34291291 </v>
   <v>       0.11579782       0.58987217       0.34241923 </v>
   <v>       0.35326606       0.58228167       0.34240624 </v>
   <v>       0.61135759       0.58736464       0.34197994 </v>
   <v>       0.85841324       0.58808394       0.34317463 </v>
   <v>       0.11473034       0.75284008       0.34323061 </v>
   <v>       0.35574316       0.74144235       0.34379351 </v>
   <v>       0.61686728       0.74619622       0.34298313 </v>
   <v>       0.85739336       0.75482669       0.34244535 </v>
   <v>       0.11018339       0.90955403       0.34276074 </v>
   <v>       0.36571094       0.90831643       0.34430388 </v>
   <v>       0.61670082       0.91346554       0.34286791 </v>
   <v>       0.86092750       0.92007106       0.34261957 </v>
   <v>       0.99911516       0.99857426       0.37978935 </v>
   <v>       0.25253800       0.00008051       0.37872852 </v>
   <v>       0.48809684       0.99794845       0.37930064 </v>
   <v>       0.74837002       0.00009445       0.37977879 </v>
   <v>       0.99350991       0.16294071       0.37872052 </v>
   <v>       0.24926801       0.16980061       0.37675011 </v>
   <v>       0.49321664       0.16538679       0.37907057 </v>
   <v>       0.74585826       0.16616689       0.37884809 </v>
   <v>       0.00101398       0.32854136       0.38009475 </v>
   <v>       0.24719289       0.33646544       0.37629010 </v>
   <v>       0.49745997       0.33922110       0.38001576 </v>
   <v>       0.73980798       0.33440166       0.37873708 </v>
   <v>       0.99444011       0.49239183       0.37961722 </v>
   <v>       0.25427439       0.50063335       0.37790041 </v>
   <v>       0.48605567       0.50147708       0.37636322 </v>
   <v>       0.74439907       0.50330654       0.37765146 </v>
   <v>       0.99159600       0.65990349       0.37796313 </v>
   <v>       0.24324135       0.66411389       0.37892051 </v>
   <v>       0.49073740       0.66261471       0.37623218 </v>
   <v>       0.74299574       0.66752240       0.37768263 </v>
   <v>       0.99003849       0.83208601       0.37935482 </v>
   <v>       0.24232427       0.83207866       0.37842145 </v>
   <v>       0.48976065       0.82870195       0.37833726 </v>
   <v>       0.73277764       0.83466857       0.37688858 </v>
   <v>       0.11272448       0.08247620       0.41237077 </v>
   <v>       0.36328844       0.08178153       0.41192724 </v>
   <v>       0.61365756       0.08953547       0.41179586 </v>
   <v>       0.86840682       0.08252415       0.41429646 </v>
   <v>       0.12250068       0.24660362       0.41258429 </v>
   <v>       0.37133153       0.25320038       0.41160687 </v>
   <v>       0.62578539       0.25223821       0.41223122 </v>
   <v>       0.85969776       0.24915759       0.41253981 </v>
   <v>       0.12635023       0.41201631       0.41226193 </v>
   <v>       0.35944845       0.41479985       0.41304861 </v>
   <v>       0.62064619       0.42084191       0.41162300 </v>
   <v>       0.86775809       0.41676075       0.41194617 </v>
   <v>       0.11569247       0.57689910       0.41176972 </v>
   <v>       0.37461611       0.58271732       0.41342385 </v>
   <v>       0.61631234       0.58062532       0.41110497 </v>
   <v>       0.86629907       0.58042973       0.41247260 </v>
   <v>       0.11703770       0.74989974       0.41291725 </v>
   <v>       0.37147094       0.74463630       0.41438869 </v>
   <v>       0.62454136       0.74830079       0.41335489 </v>
   <v>       0.87201853       0.74190892       0.41135776 </v>
   <v>       0.12184218       0.91358467       0.41183982 </v>
   <v>       0.37964080       0.91042852       0.41296457 </v>
   <v>       0.61815233       0.91659258       0.41246967 </v>
   <v>       0.87163312       0.91068606       0.41465837 </v>
   <v>       0.00077228       0.99951170       0.44994434 </v>
   <v>       0.24219447       0.99940144       0.44516808 </v>
   <v>       0.49502585       0.99971472       0.44834571 </v>
   <v>       0.73410597       0.00393065       0.44794121 </v>
   <v>       0.99494310       0.16879489       0.44682219 </v>
   <v>       0.25356516       0.17253592       0.44720090 </v>
   <v>       0.50658973       0.16705294       0.44901009 </v>
   <v>       0.74545764       0.17286877       0.44662099 </v>
   <v>       0.99329098       0.33376958       0.44602132 </v>
   <v>       0.24084456       0.33854310       0.44771864 </v>
   <v>       0.49427010       0.33015730       0.44700882 </v>
   <v>       0.74283414       0.33802298       0.44656282 </v>
   <v>       0.99575544       0.50109741       0.44629210 </v>
   <v>       0.24907286       0.49865785       0.44569392 </v>
   <v>       0.50023623       0.49915612       0.44558444 </v>
   <v>       0.74882499       0.50180367       0.44729533 </v>
   <v>       0.00120327       0.66527835       0.44673974 </v>
   <v>       0.25027456       0.66257475       0.44798181 </v>
   <v>       0.50484865       0.66307540       0.44794970 </v>
   <v>       0.76206707       0.66590786       0.44833651 </v>
   <v>       0.99589006       0.83165119       0.44756411 </v>
   <v>       0.24642475       0.83128448       0.44725481 </v>
   <v>       0.49682477       0.82858276       0.44874357 </v>
   <v>       0.75099033       0.83290208       0.44693792 </v>
   <v>       0.12296685       0.09170459       0.48418540 </v>
   <v>       0.37505052       0.08875534       0.48213672 </v>
   <v>       0.63273646       0.07851092       0.48403675 </v>
   <v>       0.87032105       0.08868681       0.48211383 </v>
   <v>       0.13660370       0.25585780       0.48271488 </v>
   <v>       0.37109398       0.25149750       0.48338004 </v>
   <v>       0.62419911       0.25349554       0.48415192 </v>
   <v>       0.86307467       0.26168552       0.48430993 </v>
   <v>       0.12273780       0.41322571       0.48218774 </v>
   <v>       0.37408032       0.42349371       0.48157926 </v>
   <v>       0.63016257       0.42089012       0.48129001 </v>
   <v>       0.87790088       0.41764236       0.48309228 </v>
   <v>       0.11721365       0.57543418       0.48290626 </v>
   <v>       0.37336020       0.58436044       0.48240053 </v>
   <v>       0.60949972       0.58870934       0.48152154 </v>
   <v>       0.86420428       0.58731954       0.48488471 </v>
   <v>       0.12401614       0.74467814       0.48121691 </v>
   <v>       0.37133578       0.75050050       0.48234983 </v>
   <v>       0.62401853       0.75093452       0.48275105 </v>
   <v>       0.87597545       0.75666104       0.48399408 </v>
   <v>       0.13398712       0.91475988       0.48272983 </v>
   <v>       0.36791411       0.91942388       0.48344209 </v>
   <v>       0.62040265       0.91530411       0.48235401 </v>
   <v>       0.87235740       0.91715388       0.48305346 </v>
   <v>       0.00027186       0.99820583       0.51663794 </v>
   <v>       0.24306969       0.99811791       0.51811948 </v>
   <v>       0.49378022       0.00103637       0.51635259 </v>
   <v>       0.74362324       0.99626295       0.51715957 </v>
   <v>       0.98125751       0.16305480       0.51525370 </v>
   <v>       0.23662574       0.17171048       0.51695916 </v>
   <v>       0.49638658       0.16331650       0.51514356 </v>
   <v>       0.73632808       0.17162743       0.51881260 </v>
   <v>       0.98664776       0.33403756       0.51859167 </v>
   <v>       0.24404419       0.33500845       0.51765317 </v>
   <v>       0.48705747       0.33529801       0.51806501 </v>
   <v>       0.74285766       0.33646341       0.51907783 </v>
   <v>       0.98224946       0.49731693       0.51719472 </v>
   <v>       0.23444749       0.50046140       0.51828187 </v>
   <v>       0.49354204       0.49922636       0.51771473 </v>
   <v>       0.73165236       0.50045296       0.51670034 </v>
   <v>       0.99468762       0.66524514       0.51741047 </v>
   <v>       0.23945217       0.66238022       0.51511575 </v>
   <v>       0.49343755       0.66485998       0.51622436 </v>
   <v>       0.72907255       0.66607296       0.51723668 </v>
   <v>       0.99900281       0.83153186       0.51654471 </v>
   <v>       0.24360288       0.82575143       0.51612173 </v>
   <v>       0.48807258       0.83640143       0.51686385 </v>
   <v>       0.74176658       0.83345820       0.51698466 </v>
   <v>       0.10811052       0.07947358       0.55177853 </v>
   <v>       0.36328101       0.08528722       0.55165037 </v>
   <v>       0.61407827       0.08448760       0.55075539 </v>
   <v>       0.87096347       0.08565056       0.55113890 </v>
   <v>       0.11490748       0.24781199       0.55115129 </v>
   <v>       0.36291284       0.24469402       0.55178873 </v>
   <v>       0.62630917       0.25015053       0.55312726 </v>
   <v>       0.85557185       0.25458819       0.55253791 </v>
   <v>       0.11685868       0.41137163       0.55226394 </v>
   <v>       0.36314396       0.42048879       0.55265143 </v>
   <v>       0.62276420       0.41895842       0.55184367 </v>
   <v>       0.87215998       0.41820216       0.55418984 </v>
   <v>       0.11433370       0.58254203       0.55372327 </v>
   <v>       0.37479302       0.57860652       0.55060667 </v>
   <v>       0.63141743       0.58131239       0.55305762 </v>
   <v>       0.86869977       0.57806504       0.55299513 </v>
   <v>       0.12200300       0.74766038       0.55074730 </v>
   <v>       0.36915214       0.74975663       0.54964423 </v>
   <v>       0.62101884       0.75210592       0.55201649 </v>
   <v>       0.86008594       0.74206254       0.55058865 </v>
   <v>       0.11758318       0.91644006       0.55208809 </v>
   <v>       0.36655825       0.91526832       0.55124206 </v>
   <v>       0.61586494       0.91772183       0.55217147 </v>
   <v>       0.87470041       0.91915655       0.54964189 </v>
   <v>       0.98874688       0.99748020       0.58525879 </v>
   <v>       0.24549278       0.99499688       0.58561998 </v>
   <v>       0.49536375       0.99687946       0.58729505 </v>
   <v>       0.75046411       0.99461592       0.58353249 </v>
   <v>       0.99263814       0.16428167       0.58630594 </v>
   <v>       0.24394104       0.15916055       0.58811494 </v>
   <v>       0.49835159       0.16450193       0.58514983 </v>
   <v>       0.74175058       0.16209084       0.58678819 </v>
   <v>       0.99057010       0.33731749       0.58757544 </v>
   <v>       0.25409960       0.33684541       0.58495005 </v>
   <v>       0.49638658       0.33234489       0.58582566 </v>
   <v>       0.75053254       0.33184155       0.58725012 </v>
   <v>       0.99009279       0.49908052       0.58890988 </v>
   <v>       0.24276688       0.49784762       0.58841649 </v>
   <v>       0.49759944       0.50140583       0.58557696 </v>
   <v>       0.73757391       0.49848983       0.58587031 </v>
   <v>       0.98150746       0.66831462       0.58937706 </v>
   <v>       0.25610866       0.66149245       0.58503954 </v>
   <v>       0.50095743       0.66454806       0.58788633 </v>
   <v>       0.74349176       0.66382472       0.58836885 </v>
   <v>       0.00140734       0.82756464       0.58539187 </v>
   <v>       0.25310272       0.82652489       0.58615281 </v>
   <v>       0.48691205       0.82618327       0.58591780 </v>
   <v>       0.74788289       0.83372847       0.58767759 </v>
   <v>       0.11810649       0.07861249       0.62094689 </v>
   <v>       0.36389333       0.07424254       0.62075462 </v>
   <v>       0.61426967       0.08574175       0.62076148 </v>
   <v>       0.86820500       0.08464192       0.61866987 </v>
   <v>       0.11996366       0.25691428       0.62105111 </v>
   <v>       0.36810308       0.24481823       0.62155157 </v>
   <v>       0.61641198       0.25880574       0.62186892 </v>
   <v>       0.87588029       0.24750779       0.61951274 </v>
   <v>       0.11974385       0.41581059       0.62141980 </v>
   <v>       0.37387334       0.40730726       0.62095995 </v>
   <v>       0.61980423       0.41200489       0.62252625 </v>
   <v>       0.86581628       0.41894204       0.62152203 </v>
   <v>       0.13050949       0.58840602       0.62044957 </v>
   <v>       0.37187026       0.57349371       0.62434459 </v>
   <v>       0.61353402       0.57547469       0.62225567 </v>
   <v>       0.86293010       0.58684790       0.62277610 </v>
   <v>       0.11975103       0.75082519       0.62006847 </v>
   <v>       0.37144288       0.74116203       0.62265141 </v>
   <v>       0.62421853       0.74303655       0.62119141 </v>
   <v>       0.87748845       0.74755990       0.62239889 </v>
   <v>       0.11694102       0.91121504       0.62040523 </v>
   <v>       0.36367124       0.90556704       0.62110696 </v>
   <v>       0.61686299       0.91454334       0.61997053 </v>
   <v>       0.86263461       0.91664351       0.62040227 </v>
   <v>       0.99911159       0.99615156       0.65681107 </v>
   <v>       0.24578054       0.99703077       0.65669666 </v>
   <v>       0.49484570       0.99699847       0.65403042 </v>
   <v>       0.73286039       0.00247025       0.65611257 </v>
   <v>       0.99218699       0.16507341       0.65556672 </v>
   <v>       0.24743378       0.15824978       0.65387277 </v>
   <v>       0.49508479       0.16131184       0.65314538 </v>
   <v>       0.74298774       0.16416180       0.65220447 </v>
   <v>       0.99581852       0.32583217       0.65701431 </v>
   <v>       0.23786489       0.33139889       0.65876572 </v>
   <v>       0.49838271       0.32795742       0.65830556 </v>
   <v>       0.75163177       0.33000610       0.65558398 </v>
   <v>       0.99838800       0.50186468       0.65479182 </v>
   <v>       0.23740695       0.49453097       0.65890587 </v>
   <v>       0.49609746       0.49536851       0.65697554 </v>
   <v>       0.74998281       0.49722412       0.65664504 </v>
   <v>       0.00246857       0.67001553       0.65471706 </v>
   <v>       0.24097351       0.67049074       0.65552615 </v>
   <v>       0.48921964       0.66520513       0.65700994 </v>
   <v>       0.74262418       0.66860987       0.65772425 </v>
   <v>       0.98628585       0.83221340       0.65605517 </v>
   <v>       0.24909146       0.82830517       0.65868225 </v>
   <v>       0.49914493       0.83015516       0.65339200 </v>
   <v>       0.74678978       0.83317333       0.65774678 </v>
  </varray>
 </structure>
</modeling>
