unknown system                          
           1
    11.455130    0.000000    0.000000
     0.000000   17.182695    0.000000
     0.000000    0.000000   58.225000
   Al
 240
Direct configuration=     1
   0.11434577  0.07504146  0.34494810
   0.35836430  0.08171529  0.34010930
   0.61498723  0.08293679  0.34643058
   0.86713266  0.08465698  0.34114950
   0.11028207  0.25117364  0.34321668
   0.37418082  0.25202437  0.34434707
   0.61486480  0.24897553  0.34336473
   0.87239116  0.25249097  0.34510661
   0.11441737  0.42207930  0.34251722
   0.36798048  0.41627038  0.34193385
   0.60981803  0.41255599  0.34298500
   0.86258534  0.41421591  0.34291291
   0.11579782  0.58987217  0.34241923
   0.35326606  0.58228167  0.34240624
   0.61135759  0.58736464  0.34197994
   0.85841324  0.58808394  0.34317463
   0.11473034  0.75284008  0.34323061
   0.35574316  0.74144235  0.34379351
   0.61686728  0.74619622  0.34298313
   0.85739336  0.75482669  0.34244535
   0.11018339  0.90955403  0.34276074
   0.36571094  0.90831643  0.34430388
   0.61670082  0.91346554  0.34286791
   0.86092750  0.92007106  0.34261957
   0.99911516  0.99857426  0.37978935
   0.25253800  0.00008051  0.37872852
   0.48809684  0.99794845  0.37930064
   0.74837002  0.00009445  0.37977879
   0.99350991  0.16294071  0.37872052
   0.24926801  0.16980061  0.37675011
   0.49321664  0.16538679  0.37907057
   0.74585826  0.16616689  0.37884809
   0.00101398  0.32854136  0.38009475
   0.24719289  0.33646544  0.37629010
   0.49745997  0.33922110  0.38001576
   0.73980798  0.33440166  0.37873708
   0.99444011  0.49239183  0.37961722
   0.25427439  0.50063335  0.37790041
   0.48605567  0.50147708  0.37636322
   0.74439907  0.50330654  0.37765146
   0.99159600  0.65990349  0.37796313
   0.24324135  0.66411389  0.37892051
   0.49073740  0.66261471  0.37623218
   0.74299574  0.66752240  0.37768263
   0.99003849  0.83208601  0.37935482
   0.24232427  0.83207866  0.37842145
   0.48976065  0.82870195  0.37833726
   0.73277764  0.83466857  0.37688858
   0.11272448  0.08247620  0.41237077
   0.36328844  0.08178153  0.41192724
   0.61365756  0.08953547  0.41179586
   0.86840682  0.08252415  0.41429646
   0.12250068  0.24660362  0.41258429
   0.37133153  0.25320038  0.41160687
   0.62578539  0.25223821  0.41223122
   0.85969776  0.24915759  0.41253981
   0.12635023  0.41201631  0.41226193
   0.35944845  0.41479985  0.41304861
   0.62064619  0.42084191  0.41162300
   0.86775809  0.41676075  0.41194617
   0.11569247  0.57689910  0.41176972
   0.37461611  0.58271732  0.41342385
   0.61631234  0.58062532  0.41110497
   0.86629907  0.58042973  0.41247260
   0.11703770  0.74989974  0.41291725
   0.37147094  0.74463630  0.41438869
   0.62454136  0.74830079  0.41335489
   0.87201853  0.74190892  0.41135776
   0.12184218  0.91358467  0.41183982
   0.37964080  0.91042852  0.41296457
   0.61815233  0.91659258  0.41246967
   0.87163312  0.91068606  0.41465837
   0.00077228  0.99951170  0.44994434
   0.24219447  0.99940144  0.44516808
   0.49502585  0.99971472  0.44834571
   0.73410597  0.00393065  0.44794121
   0.99494310  0.16879489  0.44682219
   0.25356516  0.17253592  0.44720090
   0.50658973  0.16705294  0.44901009
   0.74545764  0.17286877  0.44662099
   0.99329098  0.33376958  0.44602132
   0.24084456  0.33854310  0.44771864
   0.49427010  0.33015730  0.44700882
   0.74283414  0.33802298  0.44656282
   0.99575544  0.50109741  0.44629210
   0.24907286  0.49865785  0.44569392
   0.50023623  0.49915612  0.44558444
   0.74882499  0.50180367  0.44729533
   0.00120327  0.66527835  0.44673974
   0.25027456  0.66257475  0.44798181
   0.50484865  0.66307540  0.44794970
   0.76206707  0.66590786  0.44833651
   0.99589006  0.83165119  0.44756411
   0.24642475  0.83128448  0.44725481
   0.49682477  0.82858276  0.44874357
   0.75099033  0.83290208  0.44693792
   0.12296685  0.09170459  0.48418540
   0.37505052  0.08875534  0.48213672
   0.63273646  0.07851092  0.48403675
   0.87032105  0.08868681  0.48211383
   0.13660370  0.25585780  0.48271488
   0.37109398  0.25149750  0.48338004
   0.62419911  0.25349554  0.48415192
   0.86307467  0.26168552  0.48430993
   0.12273780  0.41322571  0.48218774
   0.37408032  0.42349371  0.48157926
   0.63016257  0.42089012  0.48129001
   0.87790088  0.41764236  0.48309228
   0.11721365  0.57543418  0.48290626
   0.37336020  0.58436044  0.48240053
   0.60949972  0.58870934  0.48152154
   0.86420428  0.58731954  0.48488471
   0.12401614  0.74467814  0.48121691
   0.37133578  0.75050050  0.48234983
   0.62401853  0.75093452  0.48275105
   0.87597545  0.75666104  0.48399408
   0.13398712  0.91475988  0.48272983
   0.36791411  0.91942388  0.48344209
   0.62040265  0.91530411  0.48235401
   0.87235740  0.91715388  0.48305346
   0.00027186  0.99820583  0.51663794
   0.24306969  0.99811791  0.51811948
   0.49378022  0.00103637  0.51635259
   0.74362324  0.99626295  0.51715957
   0.98125751  0.16305480  0.51525370
   0.23662574  0.17171048  0.51695916
   0.49638658  0.16331650  0.51514356
   0.73632808  0.17162743  0.51881260
   0.98664776  0.33403756  0.51859167
   0.24404419  0.33500845  0.51765317
   0.48705747  0.33529801  0.51806501
   0.74285766  0.33646341  0.51907783
   0.98224946  0.49731693  0.51719472
   0.23444749  0.50046140  0.51828187
   0.49354204  0.49922636  0.51771473
   0.73165236  0.50045296  0.51670034
   0.99468762  0.66524514  0.51741047
   0.23945217  0.66238022  0.51511575
   0.49343755  0.66485998  0.51622436
   0.72907255  0.66607296  0.51723668
   0.99900281  0.83153186  0.51654471
   0.24360288  0.82575143  0.51612173
   0.48807258  0.83640143  0.51686385
   0.74176658  0.83345820  0.51698466
   0.10811052  0.07947358  0.55177853
   0.36328101  0.08528722  0.55165037
   0.61407827  0.08448760  0.55075539
   0.87096347  0.08565056  0.55113890
   0.11490748  0.24781199  0.55115129
   0.36291284  0.24469402  0.55178873
   0.62630917  0.25015053  0.55312726
   0.85557185  0.25458819  0.55253791
   0.11685868  0.41137163  0.55226394
   0.36314396  0.42048879  0.55265143
   0.62276420  0.41895842  0.55184367
   0.87215998  0.41820216  0.55418984
   0.11433370  0.58254203  0.55372327
   0.37479302  0.57860652  0.55060667
   0.63141743  0.58131239  0.55305762
   0.86869977  0.57806504  0.55299513
   0.12200300  0.74766038  0.55074730
   0.36915214  0.74975663  0.54964423
   0.62101884  0.75210592  0.55201649
   0.86008594  0.74206254  0.55058865
   0.11758318  0.91644006  0.55208809
   0.36655825  0.91526832  0.55124206
   0.61586494  0.91772183  0.55217147
   0.87470041  0.91915655  0.54964189
   0.98874688  0.99748020  0.58525879
   0.24549278  0.99499688  0.58561998
   0.49536375  0.99687946  0.58729505
   0.75046411  0.99461592  0.58353249
   0.99263814  0.16428167  0.58630594
   0.24394104  0.15916055  0.58811494
   0.49835159  0.16450193  0.58514983
   0.74175058  0.16209084  0.58678819
   0.99057010  0.33731749  0.58757544
   0.25409960  0.33684541  0.58495005
   0.49638658  0.33234489  0.58582566
   0.75053254  0.33184155  0.58725012
   0.99009279  0.49908052  0.58890988
   0.24276688  0.49784762  0.58841649
   0.49759944  0.50140583  0.58557696
   0.73757391  0.49848983  0.58587031
   0.98150746  0.66831462  0.58937706
   0.25610866  0.66149245  0.58503954
   0.50095743  0.66454806  0.58788633
   0.74349176  0.66382472  0.58836885
   0.00140734  0.82756464  0.58539187
   0.25310272  0.82652489  0.58615281
   0.48691205  0.82618327  0.58591780
   0.74788289  0.83372847  0.58767759
   0.11810649  0.07861249  0.62094689
   0.36389333  0.07424254  0.62075462
   0.61426967  0.08574175  0.62076148
   0.86820500  0.08464192  0.61866987
   0.11996366  0.25691428  0.62105111
   0.36810308  0.24481823  0.62155157
   0.61641198  0.25880574  0.62186892
   0.87588029  0.24750779  0.61951274
   0.11974385  0.41581059  0.62141980
   0.37387334  0.40730726  0.62095995
   0.61980423  0.41200489  0.62252625
   0.86581628  0.41894204  0.62152203
   0.13050949  0.58840602  0.62044957
   0.37187026  0.57349371  0.62434459
   0.61353402  0.57547469  0.62225567
   0.86293010  0.58684790  0.62277610
   0.11975103  0.75082519  0.62006847
   0.37144288  0.74116203  0.62265141
   0.62421853  0.74303655  0.62119141
   0.87748845  0.74755990  0.62239889
   0.11694102  0.91121504  0.62040523
   0.36367124  0.90556704  0.62110696
   0.61686299  0.91454334  0.61997053
   0.86263461  0.91664351  0.62040227
   0.99911159  0.99615156  0.65681107
   0.24578054  0.99703077  0.65669666
   0.49484570  0.99699847  0.65403042
   0.73286039  0.00247025  0.65611257
   0.99218699  0.16507341  0.65556672
   0.24743378  0.15824978  0.65387277
   0.49508479  0.16131184  0.65314538
   0.74298774  0.16416180  0.65220447
   0.99581852  0.32583217  0.65701431
   0.23786489  0.33139889  0.65876572
   0.49838271  0.32795742  0.65830556
   0.75163177  0.33000610  0.65558398
   0.99838800  0.50186468  0.65479182
   0.23740695  0.49453097  0.65890587
   0.49609746  0.49536851  0.65697554
   0.74998281  0.49722412  0.65664504
   0.00246857  0.67001553  0.65471706
   0.24097351  0.67049074  0.65552615
   0.48921964  0.66520513  0.65700994
   0.74262418  0.66860987  0.65772425
   0.98628585  0.83221340  0.65605517
   0.24909146  0.82830517  0.65868225
   0.49914493  0.83015516  0.65339200
   0.74678978  0.83317333  0.65774678
